<?xml version="1.0"?>
<VTKFile type="UnstructuredGrid" version="0.1" byte_order="LittleEndian">
<!-- Elmer version: 26.2 -->
<!-- Elmer revision: 03313b2 -->
<!-- Elmer compilation date: 2026-05-20 -->
<!-- Solver input file: novapcb_thermal.sif -->
<!-- File started at: 2026/05/23 04:01:59 -->
  <UnstructuredGrid>
    <Piece NumberOfPoints="24705" NumberOfCells="29920">
      <PointData>
        <DataArray type="Float64" Name="temperature" NumberOfComponents="1" format="ascii">
  7.8257010E+001  7.8255947E+001  7.8252756E+001  7.8247436E+001  7.8239984E+001  7.8230395E+001  7.8218671E+001  7.8204812E+001  7.8188826E+001  7.8170731E+001  7.8150548E+001  7.8128315E+001  7.8104076E+001  7.8077888E+001  7.8049817E+001  7.8019934E+001  7.7988317E+001  7.7955043E+001  7.7920188E+001  7.7883822E+001  7.7846009E+001  7.7806803E+001  7.7766246E+001  7.7724367E+001  7.7681183E+001  7.7636696E+001  7.7590895E+001  7.7543758E+001  7.7495251E+001  7.7445330E+001  7.7393944E+001  7.7341040E+001  7.7286560E+001  7.7230449E+001  7.7172658E+001  7.7113143E+001  7.7051873E+001  7.6988831E+001  7.6924017E+001  7.6857448E+001  7.6789164E+001  7.6719227E+001  7.6647719E+001  7.6574747E+001  7.6500441E+001  7.6424950E+001  7.6348444E+001  7.6271111E+001  7.6193153E+001  7.6114786E+001  7.6036235E+001  7.5957734E+001  7.5879520E+001  7.5801830E+001  7.5724904E+001  7.5648976E+001  7.5574276E+001  7.5501026E+001  7.5429442E+001  7.5359729E+001  7.5292080E+001  7.5226680E+001  7.5163702E+001  7.5103305E+001  7.5045640E+001  7.4990844E+001  7.4939044E+001  7.4890356E+001  7.4844885E+001  7.4802727E+001  7.4763966E+001  7.4728679E+001  7.4696934E+001  7.4668790E+001  7.4644298E+001  7.4623502E+001  7.4606439E+001  7.4593137E+001  7.4583620E+001  7.4577904E+001  7.4575997E+001  7.8260699E+001  7.8259636E+001  7.8256446E+001  7.8251127E+001  7.8243676E+001  7.8234087E+001  7.8222361E+001  7.8208497E+001  7.8192503E+001  7.8174393E+001  7.8154192E+001  7.8131933E+001  7.8107664E+001  7.8081440E+001  7.8053330E+001  7.8023406E+001  7.7991746E+001  7.7958430E+001  7.7923536E+001  7.7887135E+001  7.7849291E+001  7.7810060E+001  7.7769485E+001  7.7727594E+001  7.7684404E+001  7.7639919E+001  7.7594125E+001  7.7547001E+001  7.7498511E+001  7.7448611E+001  7.7397249E+001  7.7344368E+001  7.7289911E+001  7.7233821E+001  7.7176046E+001  7.7116542E+001  7.7055275E+001  7.6992229E+001  7.6927399E+001  7.6860805E+001  7.6792485E+001  7.6722498E+001  7.6650930E+001  7.6577887E+001  7.6503499E+001  7.6427916E+001  7.6351308E+001  7.6273866E+001  7.6195793E+001  7.6117305E+001  7.6038631E+001  7.5960003E+001  7.5881661E+001  7.5803845E+001  7.5726794E+001  7.5650744E+001  7.5575925E+001  7.5502562E+001  7.5430868E+001  7.5361051E+001  7.5293304E+001  7.5227812E+001  7.5164747E+001  7.5104270E+001  7.5046531E+001  7.4991667E+001  7.4939804E+001  7.4891059E+001  7.4845536E+001  7.4803331E+001  7.4764528E+001  7.4729204E+001  7.4697427E+001  7.4669254E+001  7.4644739E+001  7.4623923E+001  7.4606843E+001  7.4593529E+001  7.4584003E+001  7.4578281E+001  7.4576373E+001  7.8271765E+001  7.8270703E+001  7.8267516E+001  7.8262202E+001  7.8254754E+001  7.8245166E+001  7.8233435E+001  7.8219557E+001  7.8203537E+001  7.8185387E+001  7.8165128E+001  7.8142794E+001  7.8118432E+001  7.8092101E+001  7.8063871E+001  7.8033821E+001  7.8002032E+001  7.7968591E+001  7.7933577E+001  7.7897069E+001  7.7859133E+001  7.7819826E+001  7.7779194E+001  7.7737268E+001  7.7694062E+001  7.7649581E+001  7.7603811E+001  7.7556726E+001  7.7508290E+001  7.7458454E+001  7.7407163E+001  7.7354355E+001  7.7299969E+001  7.7243942E+001  7.7186218E+001  7.7126747E+001  7.7065492E+001  7.7002431E+001  7.6937558E+001  7.6870888E+001  7.6802457E+001  7.6732326E+001  7.6660577E+001  7.6587320E+001  7.6512684E+001  7.6436823E+001  7.6359911E+001  7.6282140E+001  7.6203718E+001  7.6124868E+001  7.6045819E+001  7.5966811E+001  7.5888087E+001  7.5809890E+001  7.5732463E+001  7.5656045E+001  7.5580870E+001  7.5507163E+001  7.5435141E+001  7.5365011E+001  7.5296969E+001  7.5231200E+001  7.5167876E+001  7.5107159E+001  7.5049197E+001  7.4994128E+001  7.4942077E+001  7.4893161E+001  7.4847483E+001  7.4805138E+001  7.4766211E+001  7.4730776E+001  7.4698901E+001  7.4670644E+001  7.4646057E+001  7.4625181E+001  7.4608052E+001  7.4594701E+001  7.4585148E+001  7.4579410E+001  7.4577497E+001  7.8290207E+001  7.8289147E+001  7.8285967E+001  7.8280662E+001  7.8273222E+001  7.8263639E+001  7.8251903E+001  7.8238007E+001  7.8221948E+001  7.8203732E+001  7.8183378E+001  7.8160917E+001  7.8136398E+001  7.8109884E+001  7.8081450E+001  7.8051183E+001  7.8019175E+001  7.7985518E+001  7.7950302E+001  7.7913611E+001  7.7875518E+001  7.7836084E+001  7.7795357E+001  7.7753369E+001  7.7710139E+001  7.7665666E+001  7.7619936E+001  7.7572921E+001  7.7524578E+001  7.7474854E+001  7.7423685E+001  7.7371005E+001  7.7316742E+001  7.7260826E+001  7.7203192E+001  7.7143782E+001  7.7082551E+001  7.7019470E+001  7.6954527E+001  7.6887732E+001  7.6819120E+001  7.6748746E+001  7.6676696E+001  7.6603079E+001  7.6528027E+001  7.6451700E+001  7.6374275E+001  7.6295952E+001  7.6216946E+001  7.6137485E+001  7.6057809E+001  7.5978162E+001  7.5898796E+001  7.5819960E+001  7.5741903E+001  7.5664869E+001  7.5589097E+001  7.5514815E+001  7.5442244E+001  7.5371593E+001  7.5303059E+001  7.5236828E+001  7.5173072E+001  7.5111954E+001  7.5053621E+001  7.4998211E+001  7.4945848E+001  7.4896647E+001  7.4850712E+001  7.4808135E+001  7.4768999E+001  7.4733381E+001  7.4701344E+001  7.4672948E+001  7.4648240E+001  7.4627264E+001  7.4610055E+001  7.4596642E+001  7.4587045E+001  7.4581281E+001  7.4579358E+001  7.8316025E+001  7.8314969E+001  7.8311800E+001  7.8306510E+001  7.8299088E+001  7.8289518E+001  7.8277784E+001  7.8263870E+001  7.8247764E+001  7.8229462E+001  7.8208977E+001  7.8186338E+001  7.8161594E+001  7.8134814E+001  7.8106083E+001  7.8075501E+001  7.8043173E+001  7.8009203E+001  7.7973694E+001  7.7936739E+001  7.7898419E+001  7.7858802E+001  7.7817939E+001  7.7775867E+001  7.7732601E+001  7.7688144E+001  7.7642476E+001  7.7595564E+001  7.7547359E+001  7.7497801E+001  7.7446816E+001  7.7394325E+001  7.7340247E+001  7.7284498E+001  7.7227002E+001  7.7167688E+001  7.7106500E+001  7.7043399E+001  7.6978365E+001  7.6911401E+001  7.6842535E+001  7.6771823E+001  7.6699349E+001  7.6625224E+001  7.6549585E+001  7.6472596E+001  7.6394446E+001  7.6315340E+001  7.6235504E+001  7.6155179E+001  7.6074612E+001  7.5994061E+001  7.5913786E+001  7.5834047E+001  7.5755100E+001  7.5677198E+001  7.5600585E+001  7.5525495E+001  7.5452152E+001  7.5380769E+001  7.5311544E+001  7.5244665E+001  7.5180305E+001  7.5118626E+001  7.5059775E+001  7.5003888E+001  7.4951089E+001  7.4901492E+001  7.4855197E+001  7.4812296E+001  7.4772872E+001  7.4736997E+001  7.4704736E+001  7.4676144E+001  7.4651270E+001  7.4630155E+001  7.4612834E+001  7.4599334E+001  7.4589676E+001  7.4583875E+001  7.4581941E+001  7.8349214E+001  7.8348165E+001  7.8345013E+001  7.8339750E+001  7.8332360E+001  7.8322820E+001  7.8311103E+001  7.8297181E+001  7.8281028E+001  7.8262628E+001  7.8241981E+001  7.8219110E+001  7.8194065E+001  7.8166926E+001  7.8137793E+001  7.8106784E+001  7.8074021E+001  7.8039630E+001  7.8003727E+001  7.7966419E+001  7.7927797E+001  7.7887937E+001  7.7846896E+001  7.7804712E+001  7.7761405E+001  7.7716972E+001  7.7671391E+001  7.7624624E+001  7.7576611E+001  7.7527282E+001  7.7476551E+001  7.7424324E+001  7.7370504E+001  7.7314991E+001  7.7257693E+001  7.7198522E+001  7.7137407E+001  7.7074295E+001  7.7009155E+001  7.6941981E+001  7.6872794E+001  7.6801647E+001  7.6728624E+001  7.6653838E+001  7.6577434E+001  7.6499582E+001  7.6420482E+001  7.6340352E+001  7.6259432E+001  7.6177975E+001  7.6096246E+001  7.6014515E+001  7.5933056E+001  7.5852140E+001  7.5772037E+001  7.5693007E+001  7.5615304E+001  7.5539167E+001  7.5464826E+001  7.5392498E+001  7.5322383E+001  7.5254670E+001  7.5189533E+001  7.5127133E+001  7.5067617E+001  7.5011120E+001  7.4957763E+001  7.4907657E+001  7.4860903E+001  7.4817589E+001  7.4777796E+001  7.4741594E+001  7.4709045E+001  7.4680205E+001  7.4655119E+001  7.4633828E+001  7.4616364E+001  7.4602753E+001  7.4593017E+001  7.4587170E+001  7.4585220E+001  7.8389768E+001  7.8388728E+001  7.8385604E+001  7.8380383E+001  7.8373045E+001  7.8363560E+001  7.8351888E+001  7.8337985E+001  7.8321802E+001  7.8303302E+001  7.8282466E+001  7.8259308E+001  7.8233879E+001  7.8206273E+001  7.8176612E+001  7.8145042E+001  7.8111714E+001  7.8076775E+001  7.8040365E+001  7.8002604E+001  7.7963597E+001  7.7923429E+001  7.7882163E+001  7.7839843E+001  7.7796487E+001  7.7752091E+001  7.7706630E+001  7.7660056E+001  7.7612301E+001  7.7563278E+001  7.7512885E+001  7.7461013E+001  7.7407541E+001  7.7352351E+001  7.7295326E+001  7.7236360E+001  7.7175362E+001  7.7112260E+001  7.7047009E+001  7.6979590E+001  7.6910017E+001  7.6838339E+001  7.6764639E+001  7.6689035E+001  7.6611677E+001  7.6532749E+001  7.6452463E+001  7.6371054E+001  7.6288780E+001  7.6205912E+001  7.6122733E+001  7.6039531E+001  7.5956599E+001  7.5874223E+001  7.5792686E+001  7.5712261E+001  7.5633211E+001  7.5555785E+001  7.5480216E+001  7.5406727E+001  7.5335521E+001  7.5266787E+001  7.5200701E+001  7.5137422E+001  7.5077095E+001  7.5019854E+001  7.4965819E+001  7.4915096E+001  7.4867785E+001  7.4823970E+001  7.4783730E+001  7.4747132E+001  7.4714237E+001  7.4685095E+001  7.4659753E+001  7.4638248E+001  7.4620612E+001  7.4606868E+001  7.4597038E+001  7.4591135E+001  7.4589166E+001  7.8437677E+001  7.8436649E+001  7.8433563E+001  7.8428404E+001  7.8421148E+001  7.8411755E+001  7.8400174E+001  7.8386337E+001  7.8370164E+001  7.8351584E+001  7.8330545E+001  7.8307042E+001  7.8281130E+001  7.8252922E+001  7.8222579E+001  7.8190287E+001  7.8156236E+001  7.8120606E+001  7.8083558E+001  7.8045233E+001  7.8005748E+001  7.7965200E+001  7.7923660E+001  7.7881175E+001  7.7837765E+001  7.7793426E+001  7.7748125E+001  7.7701805E+001  7.7654385E+001  7.7605761E+001  7.7555812E+001  7.7504403E+001  7.7451392E+001  7.7396631E+001  7.7339977E+001  7.7281299E+001  7.7220479E+001  7.7157423E+001  7.7092067E+001  7.7024378E+001  7.6954359E+001  7.6882053E+001  7.6807544E+001  7.6730954E+001  7.6652445E+001  7.6572214E+001  7.6490489E+001  7.6407529E+001  7.6323611E+001  7.6239031E+001  7.6154096E+001  7.6069118E+001  7.5984407E+001  7.5900272E+001  7.5817012E+001  7.5734915E+001  7.5654254E+001  7.5575288E+001  7.5498258E+001  7.5423389E+001  7.5350889E+001  7.5280948E+001  7.5213740E+001  7.5149424E+001  7.5088144E+001  7.5030029E+001  7.4975197E+001  7.4923752E+001  7.4875787E+001  7.4831387E+001  7.4790624E+001  7.4753564E+001  7.4720264E+001  7.4690772E+001  7.4665131E+001  7.4643377E+001  7.4625539E+001  7.4611641E+001  7.4601701E+001  7.4595732E+001  7.4593742E+001  7.8492921E+001  7.8491911E+001  7.8488876E+001  7.8483802E+001  7.8476663E+001  7.8467414E+001  7.8455991E+001  7.8442299E+001  7.8426215E+001  7.8407610E+001  7.8386374E+001  7.8362469E+001  7.8335949E+001  7.8306966E+001  7.8275742E+001  7.8242527E+001  7.8207565E+001  7.8171073E+001  7.8133240E+001  7.8094225E+001  7.8054160E+001  7.8013153E+001  7.7971283E+001  7.7928604E+001  7.7885139E+001  7.7840879E+001  7.7795788E+001  7.7749796E+001  7.7702806E+001  7.7654694E+001  7.7605316E+001  7.7554508E+001  7.7502095E+001  7.7447898E+001  7.7391741E+001  7.7333457E+001  7.7272899E+001  7.7209945E+001  7.7144506E+001  7.7076531E+001  7.7006010E+001  7.6932980E+001  7.6857525E+001  7.6779773E+001  7.6699900E+001  7.6618119E+001  7.6534683E+001  7.6449874E+001  7.6363999E+001  7.6277384E+001  7.6190364E+001  7.6103279E+001  7.6016466E+001  7.5930256E+001  7.5844969E+001  7.5760909E+001  7.5678364E+001  7.5597601E+001  7.5518871E+001  7.5442402E+001  7.5368404E+001  7.5297068E+001  7.5228568E+001  7.5163060E+001  7.5100685E+001  7.5041569E+001  7.4985826E+001  7.4933554E+001  7.4884845E+001  7.4839777E+001  7.4798420E+001  7.4760834E+001  7.4727073E+001  7.4697183E+001  7.4671204E+001  7.4649167E+001  7.4631101E+001  7.4617028E+001  7.4606963E+001  7.4600920E+001  7.4598905E+001  7.8555478E+001  7.8554490E+001  7.8551519E+001  7.8546554E+001  7.8539571E+001  7.8530528E+001  7.8519355E+001  7.8505932E+001  7.8490079E+001  7.8471568E+001  7.8450187E+001  7.8425820E+001  7.8398522E+001  7.8368520E+001  7.8336146E+001  7.8301752E+001  7.8265654E+001  7.8228108E+001  7.8189325E+001  7.8149480E+001  7.8108719E+001  7.8067163E+001  7.8024904E+001  7.7982000E+001  7.7938477E+001  7.7894328E+001  7.7849507E+001  7.7803932E+001  7.7757488E+001  7.7710028E+001  7.7661376E+001  7.7611336E+001  7.7559694E+001  7.7506230E+001  7.7450727E+001  7.7392977E+001  7.7332795E+001  7.7270022E+001  7.7204541E+001  7.7136276E+001  7.7065204E+001  7.6991354E+001  7.6914808E+001  7.6835706E+001  7.6754236E+001  7.6670637E+001  7.6585188E+001  7.6498206E+001  7.6410031E+001  7.6321027E+001  7.6231564E+001  7.6142015E+001  7.6052752E+001  7.5964131E+001  7.5876496E+001  7.5790170E+001  7.5705456E+001  7.5622633E+001  7.5541958E+001  7.5463665E+001  7.5387964E+001  7.5315048E+001  7.5245087E+001  7.5178234E+001  7.5114627E+001  7.5054387E+001  7.4997621E+001  7.4944425E+001  7.4894883E+001  7.4849070E+001  7.4807049E+001  7.4768878E+001  7.4734605E+001  7.4704272E+001  7.4677915E+001  7.4655565E+001  7.4637246E+001  7.4622978E+001  7.4612776E+001  7.4606650E+001  7.4604608E+001  7.8625317E+001  7.8624354E+001  7.8621459E+001  7.8616625E+001  7.8609835E+001  7.8601060E+001  7.8590246E+001  7.8577272E+001  7.8561894E+001  7.8543727E+001  7.8522339E+001  7.8497452E+001  7.8469117E+001  7.8437722E+001  7.8403817E+001  7.8367922E+001  7.8330428E+001  7.8291616E+001  7.8251702E+001  7.8210872E+001  7.8169288E+001  7.8127084E+001  7.8084365E+001  7.8041201E+001  7.7997623E+001  7.7953621E+001  7.7909143E+001  7.7864094E+001  7.7818336E+001  7.7771696E+001  7.7723961E+001  7.7674894E+001  7.7624237E+001  7.7571718E+001  7.7517069E+001  7.7460032E+001  7.7400373E+001  7.7337891E+001  7.7272431E+001  7.7203891E+001  7.7132226E+001  7.7057457E+001  7.6979669E+001  7.6899009E+001  7.6815687E+001  7.6729972E+001  7.6642177E+001  7.6552660E+001  7.6461806E+001  7.6370021E+001  7.6277721E+001  7.6185322E+001  7.6093231E+001  7.6001839E+001  7.5911514E+001  7.5822604E+001  7.5735426E+001  7.5650271E+001  7.5567403E+001  7.5487059E+001  7.5409452E+001  7.5334771E+001  7.5263183E+001  7.5194837E+001  7.5129865E+001  7.5068381E+001  7.5010488E+001  7.4956274E+001  7.4905817E+001  7.4859185E+001  7.4816437E+001  7.4777624E+001  7.4742790E+001  7.4711973E+001  7.4685205E+001  7.4662512E+001  7.4643917E+001  7.4629436E+001  7.4619083E+001  7.4612868E+001  7.4610796E+001  7.8702402E+001  7.8701466E+001  7.8698656E+001  7.8693967E+001  7.8687393E+001  7.8678931E+001  7.8668569E+001  7.8656265E+001  7.8641770E+001  7.8624467E+001  7.8603433E+001  7.8577970E+001  7.8548124E+001  7.8514688E+001  7.8478701E+001  7.8440923E+001  7.8401771E+001  7.8361476E+001  7.8320238E+001  7.8278254E+001  7.8235701E+001  7.8192735E+001  7.8149479E+001  7.8106015E+001  7.8062382E+001  7.8018571E+001  7.7974523E+001  7.7930128E+001  7.7885226E+001  7.7839608E+001  7.7793023E+001  7.7745184E+001  7.7695774E+001  7.7644464E+001  7.7590921E+001  7.7534824E+001  7.7475880E+001  7.7413836E+001  7.7348490E+001  7.7279706E+001  7.7207417E+001  7.7131632E+001  7.7052435E+001  7.6969991E+001  7.6884534E+001  7.6796368E+001  7.6705851E+001  7.6613392E+001  7.6519431E+001  7.6424430E+001  7.6328858E+001  7.6233183E+001  7.6137854E+001  7.6043301E+001  7.5949926E+001  7.5858095E+001  7.5768146E+001  7.5680380E+001  7.5595067E+001  7.5512446E+001  7.5432729E+001  7.5356101E+001  7.5282725E+001  7.5212743E+001  7.5146278E+001  7.5083439E+001  7.5024319E+001  7.4969000E+001  7.4917550E+001  7.4870032E+001  7.4826498E+001  7.4786993E+001  7.4751555E+001  7.4720216E+001  7.4693005E+001  7.4669943E+001  7.4651051E+001  7.4636342E+001  7.4625828E+001  7.4619516E+001  7.4617411E+001  7.8786692E+001  7.8785786E+001  7.8783065E+001  7.8778526E+001  7.8772174E+001  7.8764026E+001  7.8754133E+001  7.8742604E+001  7.8729618E+001  7.8714294E+001  7.8694630E+001  7.8668546E+001  7.8636071E+001  7.8599355E+001  7.8560506E+001  7.8520561E+001  7.8479535E+001  7.8437547E+001  7.8394781E+001  7.8351450E+001  7.8307763E+001  7.8263903E+001  7.8220016E+001  7.8176204E+001  7.8132517E+001  7.8088948E+001  7.8045432E+001  7.8001845E+001  7.7957999E+001  7.7913649E+001  7.7868497E+001  7.7822194E+001  7.7774359E+001  7.7724585E+001  7.7672463E+001  7.7617595E+001  7.7559613E+001  7.7498198E+001  7.7433095E+001  7.7364123E+001  7.7291188E+001  7.7214285E+001  7.7133502E+001  7.7049020E+001  7.6961107E+001  7.6870109E+001  7.6776443E+001  7.6680580E+001  7.6583028E+001  7.6484318E+001  7.6384988E+001  7.6285563E+001  7.6186549E+001  7.6088417E+001  7.5991602E+001  7.5896499E+001  7.5803461E+001  7.5712798E+001  7.5624785E+001  7.5539662E+001  7.5457635E+001  7.5378885E+001  7.5303566E+001  7.5231811E+001  7.5163735E+001  7.5099436E+001  7.5038997E+001  7.4982491E+001  7.4929980E+001  7.4881516E+001  7.4837143E+001  7.4796899E+001  7.4760817E+001  7.4728924E+001  7.4701241E+001  7.4677789E+001  7.4658581E+001  7.4643630E+001  7.4632944E+001  7.4626530E+001  7.4624392E+001  7.8878145E+001  7.8877269E+001  7.8874641E+001  7.8870253E+001  7.8864108E+001  7.8856230E+001  7.8846707E+001  7.8835770E+001  7.8824032E+001  7.8813776E+001  7.8798657E+001  7.8771924E+001  7.8733573E+001  7.8690375E+001  7.8648762E+001  7.8606620E+001  7.8563577E+001  7.8519688E+001  7.8475163E+001  7.8430264E+001  7.8385246E+001  7.8340334E+001  7.8295706E+001  7.8251487E+001  7.8207742E+001  7.8164471E+001  7.8121605E+001  7.8079003E+001  7.8036453E+001  7.7993666E+001  7.7950287E+001  7.7905900E+001  7.7860041E+001  7.7812212E+001  7.7761906E+001  7.7708629E+001  7.7651923E+001  7.7591386E+001  7.7526696E+001  7.7457620E+001  7.7384031E+001  7.7305907E+001  7.7223341E+001  7.7136536E+001  7.7045798E+001  7.6951532E+001  7.6854223E+001  7.6754422E+001  7.6652724E+001  7.6549746E+001  7.6446108E+001  7.6342408E+001  7.6239215E+001  7.6137049E+001  7.6036384E+001  7.5937638E+001  7.5841181E+001  7.5747332E+001  7.5656366E+001  7.5568518E+001  7.5483988E+001  7.5402947E+001  7.5325539E+001  7.5251884E+001  7.5182086E+001  7.5116231E+001  7.5054392E+001  7.4996629E+001  7.4942993E+001  7.4893529E+001  7.4848271E+001  7.4807250E+001  7.4770491E+001  7.4738014E+001  7.4709838E+001  7.4685974E+001  7.4666436E+001  7.4651231E+001  7.4640365E+001  7.4633844E+001  7.4631670E+001  7.8976712E+001  7.8975871E+001  7.8973343E+001  7.8969110E+001  7.8963156E+001  7.8955483E+001  7.8946148E+001  7.8935349E+001  7.8923653E+001  7.8913285E+001  7.8897826E+001  7.8870451E+001  7.8831095E+001  7.8786506E+001  7.8743150E+001  7.8699004E+001  7.8653818E+001  7.8607777E+001  7.8561209E+001  7.8514469E+001  7.8467883E+001  7.8421729E+001  7.8376225E+001  7.8331524E+001  7.8287712E+001  7.8244799E+001  7.8202714E+001  7.8161305E+001  7.8120329E+001  7.8079455E+001  7.8038263E+001  7.7996255E+001  7.7952867E+001  7.7907488E+001  7.7859492E+001  7.7808263E+001  7.7753229E+001  7.7693888E+001  7.7629834E+001  7.7560773E+001  7.7486535E+001  7.7407084E+001  7.7322516E+001  7.7233060E+001  7.7139073E+001  7.7041029E+001  7.6939501E+001  7.6835141E+001  7.6728653E+001  7.6620764E+001  7.6512192E+001  7.6403628E+001  7.6295711E+001  7.6189020E+001  7.6084066E+001  7.5981293E+001  7.5881082E+001  7.5783755E+001  7.5689584E+001  7.5598796E+001  7.5511579E+001  7.5428090E+001  7.5348457E+001  7.5272788E+001  7.5201170E+001  7.5133675E+001  7.5070362E+001  7.5011280E+001  7.4956468E+001  7.4905959E+001  7.4859778E+001  7.4817947E+001  7.4780484E+001  7.4747401E+001  7.4718711E+001  7.4694422E+001  7.4674540E+001  7.4659072E+001  7.4648021E+001  7.4641389E+001  7.4639178E+001  7.9082342E+001  7.9081543E+001  7.9079133E+001  7.9075077E+001  7.9069322E+001  7.9061816E+001  7.9052524E+001  7.9041452E+001  7.9028649E+001  7.9013061E+001  7.8992463E+001  7.8964525E+001  7.8929062E+001  7.8888138E+001  7.8843965E+001  7.8797871E+001  7.8750275E+001  7.8701712E+001  7.8652724E+001  7.8603802E+001  7.8555360E+001  7.8507735E+001  7.8461191E+001  7.8415914E+001  7.8372015E+001  7.8329519E+001  7.8288361E+001  7.8248378E+001  7.8209301E+001  7.8170753E+001  7.8132244E+001  7.8093179E+001  7.8052872E+001  7.8010574E+001  7.7965505E+001  7.7916897E+001  7.7864034E+001  7.7806290E+001  7.7743158E+001  7.7674270E+001  7.7599409E+001  7.7518519E+001  7.7431702E+001  7.7339218E+001  7.7241486E+001  7.7139063E+001  7.7032636E+001  7.6922984E+001  7.6810950E+001  7.6697400E+001  7.6583179E+001  7.6469087E+001  7.6355847E+001  7.6244099E+001  7.6134393E+001  7.6027194E+001  7.5922890E+001  7.5821799E+001  7.5724181E+001  7.5630250E+001  7.5540174E+001  7.5454093E+001  7.5372116E+001  7.5294332E+001  7.5220809E+001  7.5151603E+001  7.5086758E+001  7.5026307E+001  7.4970276E+001  7.4918687E+001  7.4871554E+001  7.4828888E+001  7.4790700E+001  7.4756994E+001  7.4727776E+001  7.4703050E+001  7.4682816E+001  7.4667078E+001  7.4655836E+001  7.4649091E+001  7.4646842E+001  7.9194964E+001  7.9194221E+001  7.9191970E+001  7.9188145E+001  7.9182647E+001  7.9175350E+001  7.9166101E+001  7.9154698E+001  7.9140694E+001  7.9123202E+001  7.9100916E+001  7.9072638E+001  7.9037936E+001  7.8997367E+001  7.8952148E+001  7.8903633E+001  7.8853042E+001  7.8801383E+001  7.8749472E+001  7.8697946E+001  7.8647302E+001  7.8597935E+001  7.8550152E+001  7.8504179E+001  7.8460157E+001  7.8418132E+001  7.8378054E+001  7.8339756E+001  7.8302950E+001  7.8267213E+001  7.8231979E+001  7.8196543E+001  7.8160073E+001  7.8121641E+001  7.8080274E+001  7.8035007E+001  7.7984941E+001  7.7929297E+001  7.7867447E+001  7.7798938E+001  7.7723500E+001  7.7641052E+001  7.7551706E+001  7.7455758E+001  7.7353695E+001  7.7246182E+001  7.7134042E+001  7.7018221E+001  7.6899743E+001  7.6779650E+001  7.6658954E+001  7.6538582E+001  7.6419358E+001  7.6301984E+001  7.6187044E+001  7.6075016E+001  7.5966283E+001  7.5861151E+001  7.5759860E+001  7.5662598E+001  7.5569513E+001  7.5480715E+001  7.5396292E+001  7.5316309E+001  7.5240814E+001  7.5169842E+001  7.5103419E+001  7.5041562E+001  7.4984282E+001  7.4931588E+001  7.4883482E+001  7.4839965E+001  7.4801038E+001  7.4766699E+001  7.4736945E+001  7.4711774E+001  7.4691184E+001  7.4675172E+001  7.4663736E+001  7.4656876E+001  7.4654589E+001  7.9314483E+001  7.9313819E+001  7.9311793E+001  7.9308304E+001  7.9303191E+001  7.9296247E+001  7.9287218E+001  7.9275772E+001  7.9261439E+001  7.9243539E+001  7.9221115E+001  7.9193029E+001  7.9158294E+001  7.9116653E+001  7.9068924E+001  7.9016795E+001  7.8962170E+001  7.8906595E+001  7.8851136E+001  7.8796510E+001  7.8743264E+001  7.8691837E+001  7.8642581E+001  7.8595761E+001  7.8551556E+001  7.8510045E+001  7.8471199E+001  7.8434864E+001  7.8400742E+001  7.8368375E+001  7.8337121E+001  7.8306150E+001  7.8274453E+001  7.8240875E+001  7.8204189E+001  7.8163169E+001  7.8116685E+001  7.8063766E+001  7.8003643E+001  7.7935768E+001  7.7859819E+001  7.7775691E+001  7.7683499E+001  7.7583580E+001  7.7476498E+001  7.7363039E+001  7.7244201E+001  7.7121146E+001  7.6995137E+001  7.6867456E+001  7.6739321E+001  7.6611822E+001  7.6485890E+001  7.6362286E+001  7.6241619E+001  7.6124362E+001  7.6010880E+001  7.5901451E+001  7.5796282E+001  7.5695529E+001  7.5599305E+001  7.5507691E+001  7.5420743E+001  7.5338499E+001  7.5260983E+001  7.5188207E+001  7.5120176E+001  7.5056891E+001  7.4998345E+001  7.4944533E+001  7.4895444E+001  7.4851069E+001  7.4811398E+001  7.4776421E+001  7.4746128E+001  7.4720511E+001  7.4699562E+001  7.4683275E+001  7.4671645E+001  7.4664669E+001  7.4662344E+001  7.9440754E+001  7.9440205E+001  7.9438508E+001  7.9435517E+001  7.9430999E+001  7.9424659E+001  7.9416152E+001  7.9405101E+001  7.9391105E+001  7.9373730E+001  7.9352433E+001  7.9325748E+001  7.9291452E+001  7.9247815E+001  7.9195544E+001  7.9137666E+001  7.9077425E+001  7.9016977E+001  7.8957281E+001  7.8899013E+001  7.8842722E+001  7.8788875E+001  7.8737867E+001  7.8690011E+001  7.8645531E+001  7.8604550E+001  7.8567078E+001  7.8532988E+001  7.8501998E+001  7.8473631E+001  7.8447185E+001  7.8421697E+001  7.8395943E+001  7.8368474E+001  7.8337715E+001  7.8302092E+001  7.8260167E+001  7.8210736E+001  7.8152876E+001  7.8085947E+001  7.8009575E+001  7.7923635E+001  7.7828246E+001  7.7723776E+001  7.7610862E+001  7.7490427E+001  7.7363681E+001  7.7232074E+001  7.7097200E+001  7.6960666E+001  7.6823966E+001  7.6688385E+001  7.6554963E+001  7.6424508E+001  7.6297624E+001  7.6174759E+001  7.6056236E+001  7.5942286E+001  7.5833069E+001  7.5728696E+001  7.5629237E+001  7.5534734E+001  7.5445208E+001  7.5360666E+001  7.5281102E+001  7.5206505E+001  7.5136856E+001  7.5072135E+001  7.5012320E+001  7.4957389E+001  7.4907318E+001  7.4862087E+001  7.4821674E+001  7.4786062E+001  7.4755233E+001  7.4729173E+001  7.4707868E+001  7.4691308E+001  7.4679486E+001  7.4672395E+001  7.4670032E+001  7.9573559E+001  7.9573178E+001  7.9571962E+001  7.9569705E+001  7.9566085E+001  7.9560696E+001  7.9553090E+001  7.9542838E+001  7.9529600E+001  7.9513217E+001  7.9493786E+001  7.9471693E+001  7.9440575E+001  7.9394185E+001  7.9333247E+001  7.9265381E+001  7.9198112E+001  7.9131934E+001  7.9067350E+001  7.9004887E+001  7.8945071E+001  7.8888399E+001  7.8835313E+001  7.8786184E+001  7.8741292E+001  7.8700819E+001  7.8664830E+001  7.8633254E+001  7.8605852E+001  7.8582173E+001  7.8561486E+001  7.8542714E+001  7.8524381E+001  7.8504644E+001  7.8481431E+001  7.8452670E+001  7.8416514E+001  7.8371486E+001  7.8316511E+001  7.8250881E+001  7.8174194E+001  7.8086313E+001  7.7987348E+001  7.7877678E+001  7.7757987E+001  7.7629330E+001  7.7493169E+001  7.7351342E+001  7.7205919E+001  7.7058981E+001  7.6912394E+001  7.6767668E+001  7.6625939E+001  7.6488016E+001  7.6354459E+001  7.6225649E+001  7.6101839E+001  7.5983191E+001  7.5869801E+001  7.5761720E+001  7.5658968E+001  7.5561540E+001  7.5469415E+001  7.5382565E+001  7.5300952E+001  7.5224537E+001  7.5153277E+001  7.5087132E+001  7.5026060E+001  7.4970022E+001  7.4918982E+001  7.4872906E+001  7.4831764E+001  7.4795527E+001  7.4764171E+001  7.4737675E+001  7.4716021E+001  7.4699194E+001  7.4687182E+001  7.4679979E+001  7.4677578E+001  7.9712576E+001  7.9712434E+001  7.9711912E+001  7.9710723E+001  7.9708423E+001  7.9704450E+001  7.9698197E+001  7.9689112E+001  7.9676826E+001  7.9661355E+001  7.9643385E+001  7.9625206E+001  7.9596461E+001  7.9546553E+001  7.9476317E+001  7.9397940E+001  7.9323151E+001  7.9250724E+001  7.9180705E+001  7.9113497E+001  7.9049637E+001  7.8989679E+001  7.8934133E+001  7.8883436E+001  7.8837939E+001  7.8797894E+001  7.8763444E+001  7.8734600E+001  7.8711213E+001  7.8692918E+001  7.8679043E+001  7.8668464E+001  7.8659445E+001  7.8649596E+001  7.8636089E+001  7.8616085E+001  7.8587175E+001  7.8547595E+001  7.8496181E+001  7.8432226E+001  7.8355344E+001  7.8265396E+001  7.8162475E+001  7.8046922E+001  7.7919399E+001  7.7781027E+001  7.7633535E+001  7.7479300E+001  7.7321133E+001  7.7161848E+001  7.7003830E+001  7.6848822E+001  7.6697979E+001  7.6552025E+001  7.6411405E+001  7.6276385E+001  7.6147111E+001  7.6023651E+001  7.5906020E+001  7.5794197E+001  7.5688139E+001  7.5587788E+001  7.5493079E+001  7.5403942E+001  7.5320306E+001  7.5242101E+001  7.5169260E+001  7.5101718E+001  7.5039416E+001  7.4982298E+001  7.4930313E+001  7.4883416E+001  7.4841563E+001  7.4804719E+001  7.4772852E+001  7.4745933E+001  7.4723940E+001  7.4706854E+001  7.4694660E+001  7.4687347E+001  7.4684910E+001  7.9857331E+001  7.9857531E+001  7.9857995E+001  7.9858336E+001  7.9857938E+001  7.9856018E+001  7.9851717E+001  7.9844225E+001  7.9832966E+001  7.9817859E+001  7.9799768E+001  7.9780771E+001  7.9749827E+001  7.9695530E+001  7.9618908E+001  7.9533329E+001  7.9451511E+001  7.9372649E+001  7.9296706E+001  7.9224169E+001  7.9155685E+001  7.9091911E+001  7.9033451E+001  7.8980823E+001  7.8934457E+001  7.8894686E+001  7.8861746E+001  7.8835762E+001  7.8816723E+001  7.8804437E+001  7.8798426E+001  7.8797738E+001  7.8800490E+001  7.8803546E+001  7.8802766E+001  7.8793995E+001  7.8774059E+001  7.8741013E+001  7.8693816E+001  7.8631890E+001  7.8554929E+001  7.8462816E+001  7.8355599E+001  7.8233519E+001  7.8097088E+001  7.7947282E+001  7.7785985E+001  7.7616314E+001  7.7442373E+001  7.7268258E+001  7.7097070E+001  7.6930670E+001  7.6770008E+001  7.6615579E+001  7.6467622E+001  7.6326232E+001  7.6191411E+001  7.6063108E+001  7.5941238E+001  7.5825697E+001  7.5716373E+001  7.5613149E+001  7.5515908E+001  7.5424539E+001  7.5338934E+001  7.5258993E+001  7.5184621E+001  7.5115730E+001  7.5052243E+001  7.4994085E+001  7.4941192E+001  7.4893505E+001  7.4850972E+001  7.4813546E+001  7.4781189E+001  7.4753866E+001  7.4731549E+001  7.4714214E+001  7.4701845E+001  7.4694429E+001  7.4691957E+001  8.0007148E+001  8.0007824E+001  8.0009675E+001  8.0012178E+001  8.0014494E+001  8.0015532E+001  8.0014050E+001  8.0008809E+001  7.9998778E+001  7.9983417E+001  7.9963037E+001  7.9939787E+001  7.9903413E+001  7.9843649E+001  7.9761828E+001  7.9670743E+001  7.9582756E+001  7.9497246E+001  7.9414786E+001  7.9336217E+001  7.9262419E+001  7.9194209E+001  7.9132301E+001  7.9077304E+001  7.9029725E+001  7.8989983E+001  7.8958415E+001  7.8935282E+001  7.8920756E+001  7.8914898E+001  7.8917594E+001  7.8928400E+001  7.8946137E+001  7.8966706E+001  7.8983275E+001  7.8988988E+001  7.8979690E+001  7.8954101E+001  7.8911641E+001  7.8852017E+001  7.8775073E+001  7.8680733E+001  7.8568985E+001  7.8439893E+001  7.8293663E+001  7.8130788E+001  7.7952461E+001  7.7762755E+001  7.7568445E+001  7.7376289E+001  7.7190319E+001  7.7011658E+001  7.6840708E+001  7.6677563E+001  7.6522166E+001  7.6374386E+001  7.6234051E+001  7.6100969E+001  7.5974944E+001  7.5855779E+001  7.5743287E+001  7.5637286E+001  7.5537609E