<?xml version="1.0"?>
<VTKFile type="UnstructuredGrid" version="0.1" byte_order="LittleEndian">
<!-- Elmer version: 26.2 -->
<!-- Elmer revision: 03313b2 -->
<!-- Elmer compilation date: 2026-05-20 -->
<!-- Solver input file: case.sif -->
<!-- File started at: 2026/05/23 02:26:50 -->
  <UnstructuredGrid>
    <Piece NumberOfPoints="25844" NumberOfCells="32460">
      <PointData>
        <DataArray type="Float64" Name="temperature" NumberOfComponents="1" format="ascii">
  2.9815208E+002  2.9815218E+002  2.9815234E+002  2.9815256E+002  2.9815284E+002  2.9815320E+002  2.9815365E+002  2.9815418E+002  2.9815481E+002  2.9815556E+002  2.9815642E+002  2.9815743E+002  2.9815859E+002  2.9815992E+002  2.9816145E+002  2.9816318E+002  2.9816513E+002  2.9816734E+002  2.9816982E+002  2.9817258E+002  2.9817564E+002  2.9817903E+002  2.9818275E+002  2.9818682E+002  2.9819123E+002  2.9819599E+002  2.9820110E+002  2.9820652E+002  2.9821225E+002  2.9821824E+002  2.9822445E+002  2.9823084E+002  2.9823734E+002  2.9824387E+002  2.9825036E+002  2.9825673E+002  2.9826287E+002  2.9826870E+002  2.9827412E+002  2.9827904E+002  2.9828338E+002  2.9828704E+002  2.9828996E+002  2.9829210E+002  2.9829339E+002  2.9829383E+002  2.9829339E+002  2.9829210E+002  2.9828996E+002  2.9828704E+002  2.9828338E+002  2.9827904E+002  2.9827412E+002  2.9826870E+002  2.9826287E+002  2.9825673E+002  2.9825036E+002  2.9824387E+002  2.9823734E+002  2.9823084E+002  2.9822445E+002  2.9821824E+002  2.9821225E+002  2.9820652E+002  2.9820110E+002  2.9819599E+002  2.9819123E+002  2.9818682E+002  2.9818275E+002  2.9817903E+002  2.9817564E+002  2.9817258E+002  2.9816982E+002  2.9816734E+002  2.9816513E+002  2.9816318E+002  2.9816145E+002  2.9815992E+002  2.9815859E+002  2.9815743E+002  2.9815642E+002  2.9815556E+002  2.9815481E+002  2.9815418E+002  2.9815365E+002  2.9815320E+002  2.9815284E+002  2.9815256E+002  2.9815234E+002  2.9815218E+002  2.9815208E+002  2.9815216E+002  2.9815227E+002  2.9815243E+002  2.9815266E+002  2.9815296E+002  2.9815334E+002  2.9815380E+002  2.9815436E+002  2.9815502E+002  2.9815579E+002  2.9815670E+002  2.9815776E+002  2.9815897E+002  2.9816037E+002  2.9816196E+002  2.9816378E+002  2.9816583E+002  2.9816815E+002  2.9817075E+002  2.9817365E+002  2.9817687E+002  2.9818044E+002  2.9818436E+002  2.9818864E+002  2.9819330E+002  2.9819832E+002  2.9820371E+002  2.9820944E+002  2.9821549E+002  2.9822183E+002  2.9822841E+002  2.9823518E+002  2.9824207E+002  2.9824900E+002  2.9825589E+002  2.9826264E+002  2.9826917E+002  2.9827537E+002  2.9828113E+002  2.9828636E+002  2.9829097E+002  2.9829487E+002  2.9829799E+002  2.9830026E+002  2.9830164E+002  2.9830210E+002  2.9830164E+002  2.9830026E+002  2.9829799E+002  2.9829487E+002  2.9829097E+002  2.9828636E+002  2.9828113E+002  2.9827537E+002  2.9826917E+002  2.9826264E+002  2.9825589E+002  2.9824900E+002  2.9824207E+002  2.9823518E+002  2.9822841E+002  2.9822183E+002  2.9821549E+002  2.9820944E+002  2.9820371E+002  2.9819832E+002  2.9819330E+002  2.9818864E+002  2.9818436E+002  2.9818044E+002  2.9817687E+002  2.9817365E+002  2.9817075E+002  2.9816815E+002  2.9816583E+002  2.9816378E+002  2.9816196E+002  2.9816037E+002  2.9815897E+002  2.9815776E+002  2.9815670E+002  2.9815579E+002  2.9815502E+002  2.9815436E+002  2.9815380E+002  2.9815334E+002  2.9815296E+002  2.9815266E+002  2.9815243E+002  2.9815227E+002  2.9815216E+002  2.9815228E+002  2.9815239E+002  2.9815256E+002  2.9815280E+002  2.9815312E+002  2.9815352E+002  2.9815402E+002  2.9815461E+002  2.9815531E+002  2.9815614E+002  2.9815711E+002  2.9815824E+002  2.9815954E+002  2.9816104E+002  2.9816275E+002  2.9816471E+002  2.9816692E+002  2.9816942E+002  2.9817223E+002  2.9817537E+002  2.9817887E+002  2.9818275E+002  2.9818702E+002  2.9819169E+002  2.9819678E+002  2.9820229E+002  2.9820820E+002  2.9821450E+002  2.9822117E+002  2.9822817E+002  2.9823544E+002  2.9824294E+002  2.9825058E+002  2.9825828E+002  2.9826595E+002  2.9827348E+002  2.9828077E+002  2.9828769E+002  2.9829414E+002  2.9830000E+002  2.9830516E+002  2.9830953E+002  2.9831303E+002  2.9831558E+002  2.9831713E+002  2.9831765E+002  2.9831713E+002  2.9831558E+002  2.9831303E+002  2.9830953E+002  2.9830516E+002  2.9830000E+002  2.9829414E+002  2.9828769E+002  2.9828077E+002  2.9827348E+002  2.9826595E+002  2.9825828E+002  2.9825058E+002  2.9824294E+002  2.9823544E+002  2.9822817E+002  2.9822117E+002  2.9821450E+002  2.9820820E+002  2.9820229E+002  2.9819678E+002  2.9819169E+002  2.9818702E+002  2.9818275E+002  2.9817887E+002  2.9817537E+002  2.9817223E+002  2.9816942E+002  2.9816692E+002  2.9816471E+002  2.9816275E+002  2.9816104E+002  2.9815954E+002  2.9815824E+002  2.9815711E+002  2.9815614E+002  2.9815531E+002  2.9815461E+002  2.9815402E+002  2.9815352E+002  2.9815312E+002  2.9815280E+002  2.9815256E+002  2.9815239E+002  2.9815228E+002  2.9815242E+002  2.9815254E+002  2.9815273E+002  2.9815299E+002  2.9815333E+002  2.9815377E+002  2.9815430E+002  2.9815494E+002  2.9815570E+002  2.9815661E+002  2.9815766E+002  2.9815889E+002  2.9816031E+002  2.9816195E+002  2.9816383E+002  2.9816598E+002  2.9816842E+002  2.9817119E+002  2.9817430E+002  2.9817780E+002  2.9818170E+002  2.9818603E+002  2.9819081E+002  2.9819606E+002  2.9820180E+002  2.9820802E+002  2.9821471E+002  2.9822188E+002  2.9822948E+002  2.9823747E+002  2.9824581E+002  2.9825442E+002  2.9826322E+002  2.9827211E+002  2.9828098E+002  2.9828971E+002  2.9829817E+002  2.9830623E+002  2.9831374E+002  2.9832058E+002  2.9832662E+002  2.9833173E+002  2.9833582E+002  2.9833881E+002  2.9834062E+002  2.9834123E+002  2.9834062E+002  2.9833881E+002  2.9833582E+002  2.9833173E+002  2.9832662E+002  2.9832058E+002  2.9831374E+002  2.9830623E+002  2.9829817E+002  2.9828971E+002  2.9828098E+002  2.9827211E+002  2.9826322E+002  2.9825442E+002  2.9824581E+002  2.9823747E+002  2.9822948E+002  2.9822188E+002  2.9821471E+002  2.9820802E+002  2.9820180E+002  2.9819606E+002  2.9819081E+002  2.9818603E+002  2.9818170E+002  2.9817780E+002  2.9817430E+002  2.9817119E+002  2.9816842E+002  2.9816598E+002  2.9816383E+002  2.9816195E+002  2.9816031E+002  2.9815889E+002  2.9815766E+002  2.9815661E+002  2.9815570E+002  2.9815494E+002  2.9815430E+002  2.9815377E+002  2.9815333E+002  2.9815299E+002  2.9815273E+002  2.9815254E+002  2.9815242E+002  2.9815260E+002  2.9815273E+002  2.9815293E+002  2.9815322E+002  2.9815359E+002  2.9815406E+002  2.9815465E+002  2.9815535E+002  2.9815619E+002  2.9815719E+002  2.9815835E+002  2.9815972E+002  2.9816130E+002  2.9816312E+002  2.9816522E+002  2.9816763E+002  2.9817037E+002  2.9817348E+002  2.9817700E+002  2.9818096E+002  2.9818540E+002  2.9819034E+002  2.9819582E+002  2.9820186E+002  2.9820847E+002  2.9821567E+002  2.9822345E+002  2.9823179E+002  2.9824068E+002  2.9825006E+002  2.9825988E+002  2.9827004E+002  2.9828047E+002  2.9829103E+002  2.9830159E+002  2.9831202E+002  2.9832215E+002  2.9833182E+002  2.9834085E+002  2.9834908E+002  2.9835636E+002  2.9836254E+002  2.9836748E+002  2.9837109E+002  2.9837329E+002  2.9837403E+002  2.9837329E+002  2.9837109E+002  2.9836748E+002  2.9836254E+002  2.9835636E+002  2.9834908E+002  2.9834085E+002  2.9833182E+002  2.9832215E+002  2.9831202E+002  2.9830159E+002  2.9829103E+002  2.9828047E+002  2.9827004E+002  2.9825988E+002  2.9825006E+002  2.9824068E+002  2.9823179E+002  2.9822345E+002  2.9821567E+002  2.9820847E+002  2.9820186E+002  2.9819582E+002  2.9819034E+002  2.9818540E+002  2.9818096E+002  2.9817700E+002  2.9817348E+002  2.9817037E+002  2.9816763E+002  2.9816522E+002  2.9816312E+002  2.9816130E+002  2.9815972E+002  2.9815835E+002  2.9815719E+002  2.9815619E+002  2.9815535E+002  2.9815465E+002  2.9815406E+002  2.9815359E+002  2.9815322E+002  2.9815293E+002  2.9815273E+002  2.9815260E+002  2.9815281E+002  2.9815295E+002  2.9815317E+002  2.9815349E+002  2.9815390E+002  2.9815442E+002  2.9815507E+002  2.9815585E+002  2.9815678E+002  2.9815789E+002  2.9815920E+002  2.9816072E+002  2.9816250E+002  2.9816456E+002  2.9816693E+002  2.9816966E+002  2.9817278E+002  2.9817634E+002  2.9818038E+002  2.9818494E+002  2.9819006E+002  2.9819579E+002  2.9820217E+002  2.9820922E+002  2.9821698E+002  2.9822546E+002  2.9823466E+002  2.9824457E+002  2.9825515E+002  2.9826637E+002  2.9827816E+002  2.9829040E+002  2.9830300E+002  2.9831581E+002  2.9832866E+002  2.9834138E+002  2.9835377E+002  2.9836561E+002  2.9837671E+002  2.9838685E+002  2.9839582E+002  2.9840344E+002  2.9840956E+002  2.9841402E+002  2.9841674E+002  2.9841766E+002  2.9841674E+002  2.9841402E+002  2.9840956E+002  2.9840344E+002  2.9839582E+002  2.9838685E+002  2.9837671E+002  2.9836561E+002  2.9835377E+002  2.9834138E+002  2.9832866E+002  2.9831581E+002  2.9830300E+002  2.9829040E+002  2.9827816E+002  2.9826637E+002  2.9825515E+002  2.9824457E+002  2.9823466E+002  2.9822546E+002  2.9821698E+002  2.9820922E+002  2.9820217E+002  2.9819579E+002  2.9819006E+002  2.9818494E+002  2.9818038E+002  2.9817634E+002  2.9817278E+002  2.9816966E+002  2.9816693E+002  2.9816456E+002  2.9816250E+002  2.9816072E+002  2.9815920E+002  2.9815789E+002  2.9815678E+002  2.9815585E+002  2.9815507E+002  2.9815442E+002  2.9815390E+002  2.9815349E+002  2.9815317E+002  2.9815295E+002  2.9815281E+002  2.9815306E+002  2.9815321E+002  2.9815345E+002  2.9815380E+002  2.9815426E+002  2.9815484E+002  2.9815556E+002  2.9815644E+002  2.9815748E+002  2.9815873E+002  2.9816020E+002  2.9816192E+002  2.9816394E+002  2.9816628E+002  2.9816899E+002  2.9817212E+002  2.9817571E+002  2.9817981E+002  2.9818449E+002  2.9818979E+002  2.9819577E+002  2.9820249E+002  2.9821000E+002  2.9821834E+002  2.9822755E+002  2.9823765E+002  2.9824867E+002  2.9826058E+002  2.9827336E+002  2.9828695E+002  2.9830129E+002  2.9831624E+002  2.9833168E+002  2.9834743E+002  2.9836329E+002  2.9837903E+002  2.9839441E+002  2.9840915E+002  2.9842299E+002  2.9843566E+002  2.9844689E+002  2.9845644E+002  2.9846411E+002  2.9846972E+002  2.9847314E+002  2.9847429E+002  2.9847314E+002  2.9846972E+002  2.9846411E+002  2.9845644E+002  2.9844689E+002  2.9843566E+002  2.9842299E+002  2.9840915E+002  2.9839441E+002  2.9837903E+002  2.9836329E+002  2.9834743E+002  2.9833168E+002  2.9831624E+002  2.9830129E+002  2.9828695E+002  2.9827336E+002  2.9826058E+002  2.9824867E+002  2.9823765E+002  2.9822755E+002  2.9821834E+002  2.9821000E+002  2.9820249E+002  2.9819577E+002  2.9818979E+002  2.9818449E+002  2.9817981E+002  2.9817571E+002  2.9817212E+002  2.9816899E+002  2.9816628E+002  2.9816394E+002  2.9816192E+002  2.9816020E+002  2.9815873E+002  2.9815748E+002  2.9815644E+002  2.9815556E+002  2.9815484E+002  2.9815426E+002  2.9815380E+002  2.9815345E+002  2.9815321E+002  2.9815306E+002  2.9815334E+002  2.9815350E+002  2.9815377E+002  2.9815416E+002  2.9815467E+002  2.9815532E+002  2.9815613E+002  2.9815711E+002  2.9815829E+002  2.9815970E+002  2.9816137E+002  2.9816333E+002  2.9816563E+002  2.9816831E+002  2.9817142E+002  2.9817502E+002  2.9817918E+002  2.9818395E+002  2.9818940E+002  2.9819561E+002  2.9820264E+002  2.9821058E+002  2.9821948E+002  2.9822941E+002  2.9824043E+002  2.9825257E+002  2.9826586E+002  2.9828030E+002  2.9829586E+002  2.9831248E+002  2.9833007E+002  2.9834851E+002  2.9836761E+002  2.9838716E+002  2.9840692E+002  2.9842659E+002  2.9844586E+002  2.9846439E+002  2.9848183E+002  2.9849782E+002  2.9851202E+002  2.9852413E+002  2.9853385E+002  2.9854097E+002  2.9854532E+002  2.9854678E+002  2.9854532E+002  2.9854097E+002  2.9853385E+002  2.9852413E+002  2.9851202E+002  2.9849782E+002  2.9848183E+002  2.9846439E+002  2.9844586E+002  2.9842659E+002  2.9840692E+002  2.9838716E+002  2.9836761E+002  2.9834851E+002  2.9833007E+002  2.9831248E+002  2.9829586E+002  2.9828030E+002  2.9826586E+002  2.9825257E+002  2.9824043E+002  2.9822941E+002  2.9821948E+002  2.9821058E+002  2.9820264E+002  2.9819561E+002  2.9818940E+002  2.9818395E+002  2.9817918E+002  2.9817502E+002  2.9817142E+002  2.9816831E+002  2.9816563E+002  2.9816333E+002  2.9816137E+002  2.9815970E+002  2.9815829E+002  2.9815711E+002  2.9815613E+002  2.9815532E+002  2.9815467E+002  2.9815416E+002  2.9815377E+002  2.9815350E+002  2.9815334E+002  2.9815366E+002  2.9815384E+002  2.9815414E+002  2.9815457E+002  2.9815514E+002  2.9815587E+002  2.9815678E+002  2.9815789E+002  2.9815922E+002  2.9816082E+002  2.9816271E+002  2.9816495E+002  2.9816758E+002  2.9817066E+002  2.9817425E+002  2.9817842E+002  2.9818324E+002  2.9818880E+002  2.9819519E+002  2.9820248E+002  2.9821079E+002  2.9822020E+002  2.9823080E+002  2.9824269E+002  2.9825593E+002  2.9827059E+002  2.9828671E+002  2.9830430E+002  2.9832334E+002  2.9834377E+002  2.9836549E+002  2.9838834E+002  2.9841211E+002  2.9843654E+002  2.9846131E+002  2.9848606E+002  2.9851038E+002  2.9853383E+002  2.9855594E+002  2.9857627E+002  2.9859437E+002  2.9860981E+002  2.9862223E+002  2.9863134E+002  2.9863689E+002  2.9863876E+002  2.9863689E+002  2.9863134E+002  2.9862223E+002  2.9860981E+002  2.9859437E+002  2.9857627E+002  2.9855594E+002  2.9853383E+002  2.9851038E+002  2.9848606E+002  2.9846131E+002  2.9843654E+002  2.9841211E+002  2.9838834E+002  2.9836549E+002  2.9834377E+002  2.9832334E+002  2.9830430E+002  2.9828671E+002  2.9827059E+002  2.9825593E+002  2.9824269E+002  2.9823080E+002  2.9822020E+002  2.9821079E+002  2.9820248E+002  2.9819519E+002  2.9818880E+002  2.9818324E+002  2.9817842E+002  2.9817425E+002  2.9817066E+002  2.9816758E+002  2.9816495E+002  2.9816271E+002  2.9816082E+002  2.9815922E+002  2.9815789E+002  2.9815678E+002  2.9815587E+002  2.9815514E+002  2.9815457E+002  2.9815414E+002  2.9815384E+002  2.9815366E+002  2.9815401E+002  2.9815421E+002  2.9815454E+002  2.9815502E+002  2.9815567E+002  2.9815649E+002  2.9815751E+002  2.9815876E+002  2.9816027E+002  2.9816208E+002  2.9816424E+002  2.9816680E+002  2.9816982E+002  2.9817336E+002  2.9817750E+002  2.9818233E+002  2.9818794E+002  2.9819444E+002  2.9820193E+002  2.9821052E+002  2.9822035E+002  2.9823153E+002  2.9824419E+002  2.9825844E+002  2.9827440E+002  2.9829214E+002  2.9831174E+002  2.9833324E+002  2.9835661E+002  2.9838181E+002  2.9840871E+002  2.9843714E+002  2.9846684E+002  2.9849749E+002  2.9852868E+002  2.9855995E+002  2.9859078E+002  2.9862059E+002  2.9864878E+002  2.9867475E+002  2.9869791E+002  2.9871771E+002  2.9873366E+002  2.9874536E+002  2.9875251E+002  2.9875491E+002  2.9875251E+002  2.9874536E+002  2.9873366E+002  2.9871771E+002  2.9869791E+002  2.9867475E+002  2.9864878E+002  2.9862059E+002  2.9859078E+002  2.9855995E+002  2.9852868E+002  2.9849749E+002  2.9846684E+002  2.9843714E+002  2.9840871E+002  2.9838181E+002  2.9835661E+002  2.9833324E+002  2.9831174E+002  2.9829214E+002  2.9827440E+002  2.9825844E+002  2.9824419E+002  2.9823153E+002  2.9822035E+002  2.9821052E+002  2.9820193E+002  2.9819444E+002  2.9818794E+002  2.9818233E+002  2.9817750E+002  2.9817336E+002  2.9816982E+002  2.9816680E+002  2.9816424E+002  2.9816208E+002  2.9816027E+002  2.9815876E+002  2.9815751E+002  2.9815649E+002  2.9815567E+002  2.9815502E+002  2.9815454E+002  2.9815421E+002  2.9815401E+002  2.9815439E+002  2.9815461E+002  2.9815499E+002  2.9815553E+002  2.9815625E+002  2.9815717E+002  2.9815832E+002  2.9815973E+002  2.9816145E+002  2.9816351E+002  2.9816596E+002  2.9816889E+002  2.9817234E+002  2.9817642E+002  2.9818120E+002  2.9818680E+002  2.9819333E+002  2.9820092E+002  2.9820970E+002  2.9821983E+002  2.9823146E+002  2.9824476E+002  2.9825988E+002  2.9827698E+002  2.9829622E+002  2.9831772E+002  2.9834158E+002  2.9836788E+002  2.9839661E+002  2.9842774E+002  2.9846113E+002  2.9849658E+002  2.9853377E+002  2.9857232E+002  2.9861170E+002  2.9865134E+002  2.9869054E+002  2.9872857E+002  2.9876463E+002  2.9879794E+002  2.9882770E+002  2.9885318E+002  2.9887374E+002  2.9888883E+002  2.9889805E+002  2.9890116E+002  2.9889805E+002  2.9888883E+002  2.9887374E+002  2.9885318E+002  2.9882770E+002  2.9879794E+002  2.9876463E+002  2.9872857E+002  2.9869054E+002  2.9865134E+002  2.9861170E+002  2.9857232E+002  2.9853377E+002  2.9849658E+002  2.9846113E+002  2.9842774E+002  2.9839661E+002  2.9836788E+002  2.9834158E+002  2.9831772E+002  2.9829622E+002  2.9827698E+002  2.9825988E+002  2.9824476E+002  2.9823146E+002  2.9821983E+002  2.9820970E+002  2.9820092E+002  2.9819333E+002  2.9818680E+002  2.9818120E+002  2.9817642E+002  2.9817234E+002  2.9816889E+002  2.9816596E+002  2.9816351E+002  2.9816145E+002  2.9815973E+002  2.9815832E+002  2.9815717E+002  2.9815625E+002  2.9815553E+002  2.9815499E+002  2.9815461E+002  2.9815439E+002  2.9815482E+002  2.9815506E+002  2.9815548E+002  2.9815608E+002  2.9815689E+002  2.9815792E+002  2.9815922E+002  2.9816081E+002  2.9816275E+002  2.9816509E+002  2.9816788E+002  2.9817122E+002  2.9817518E+002  2.9817986E+002  2.9818538E+002  2.9819186E+002  2.9819945E+002  2.9820831E+002  2.9821861E+002  2.9823053E+002  2.9824429E+002  2.9826008E+002  2.9827812E+002  2.9829863E+002  2.9832182E+002  2.9834786E+002  2.9837692E+002  2.9840909E+002  2.9844443E+002  2.9848290E+002  2.9852438E+002  2.9856863E+002  2.9861528E+002  2.9866384E+002  2.9871367E+002  2.9876401E+002  2.9881399E+002  2.9886262E+002  2.9890888E+002  2.9895170E+002  2.9899005E+002  2.9902295E+002  2.9904953E+002  2.9906906E+002  2.9908100E+002  2.9908502E+002  2.9908100E+002  2.9906906E+002  2.9904953E+002  2.9902295E+002  2.9899005E+002  2.9895170E+002  2.9890888E+002  2.9886262E+002  2.9881399E+002  2.9876401E+002  2.9871367E+002  2.9866384E+002  2.9861528E+002  2.9856863E+002  2.9852438E+002  2.9848290E+002  2.9844443E+002  2.9840909E+002  2.9837692E+002  2.9834786E+002  2.9832182E+002  2.9829863E+002  2.9827812E+002  2.9826008E+002  2.9824429E+002  2.9823053E+002  2.9821861E+002  2.9820831E+002  2.9819945E+002  2.9819186E+002  2.9818538E+002  2.9817986E+002  2.9817518E+002  2.9817122E+002  2.9816788E+002  2.9816509E+002  2.9816275E+002  2.9816081E+002  2.9815922E+002  2.9815792E+002  2.9815689E+002  2.9815608E+002  2.9815548E+002  2.9815506E+002  2.9815482E+002  2.9815527E+002  2.9815554E+002  2.9815601E+002  2.9815668E+002  2.9815758E+002  2.9815874E+002  2.9816020E+002  2.9816199E+002  2.9816418E+002  2.9816683E+002  2.9817001E+002  2.9817381E+002  2.9817833E+002  2.9818370E+002  2.9819006E+002  2.9819755E+002  2.9820636E+002  2.9821668E+002  2.9822872E+002  2.9824273E+002  2.9825897E+002  2.9827769E+002  2.9829920E+002  2.9832376E+002  2.9835167E+002  2.9838317E+002  2.9841851E+002  2.9845785E+002  2.9850129E+002  2.9854884E+002  2.9860037E+002  2.9865563E+002  2.9871418E+002  2.9877541E+002  2.9883854E+002  2.9890258E+002  2.9896641E+002  2.9902873E+002  2.9908820E+002  2.9914340E+002  2.9919294E+002  2.9923552E+002  2.9926996E+002  2.9929530E+002  2.9931081E+002  2.9931603E+002  2.9931081E+002  2.9929530E+002  2.9926996E+002  2.9923552E+002  2.9919294E+002  2.9914340E+002  2.9908820E+002  2.9902873E+002  2.9896641E+002  2.9890258E+002  2.9883854E+002  2.9877541E+002  2.9871418E+002  2.9865563E+002  2.9860037E+002  2.9854884E+002  2.9850129E+002  2.9845785E+002  2.9841851E+002  2.9838317E+002  2.9835167E+002  2.9832376E+002  2.9829920E+002  2.9827769E+002  2.9825897E+002  2.9824273E+002  2.9822872E+002  2.9821668E+002  2.9820636E+002  2.9819755E+002  2.9819006E+002  2.9818370E+002  2.9817833E+002  2.9817381E+002  2.9817001E+002  2.9816683E+002  2.9816418E+002  2.9816199E+002  2.9816020E+002  2.9815874E+002  2.9815758E+002  2.9815668E+002  2.9815601E+002  2.9815554E+002  2.9815527E+002  2.9815577E+002  2.9815606E+002  2.9815658E+002  2.9815733E+002  2.9815833E+002  2.9815963E+002  2.9816126E+002  2.9816328E+002  2.9816575E+002  2.9816873E+002  2.9817234E+002  2.9817665E+002  2.9818182E+002  2.9818796E+002  2.9819526E+002  2.9820389E+002  2.9821408E+002  2.9822607E+002  2.9824012E+002  2.9825655E+002  2.9827566E+002  2.9829781E+002  2.9832337E+002  2.9835272E+002  2.9838624E+002  2.9842429E+002  2.9846720E+002  2.9851523E+002  2.9856858E+002  2.9862729E+002  2.9869128E+002  2.9876027E+002  2.9883377E+002  2.9891104E+002  2.9899108E+002  2.9907266E+002  2.9915429E+002  2.9923431E+002  2.9931091E+002  2.9938221E+002  2.9944636E+002  2.9950159E+002  2.9954634E+002  2.9957929E+002  2.9959947E+002  2.9960627E+002  2.9959947E+002  2.9957929E+002  2.9954634E+002  2.9950159E+002  2.9944636E+002  2.9938221E+002  2.9931091E+002  2.9923431E+002  2.9915429E+002  2.9907266E+002  2.9899108E+002  2.9891104E+002  2.9883377E+002  2.9876027E+002  2.9869128E+002  2.9862729E+002  2.9856858E+002  2.9851523E+002  2.9846720E+002  2.9842429E+002  2.9838624E+002  2.9835272E+002  2.9832337E+002  2.9829781E+002  2.9827566E+002  2.9825655E+002  2.9824012E+002  2.9822607E+002  2.9821408E+002  2.9820389E+002  2.9819526E+002  2.9818796E+002  2.9818182E+002  2.9817665E+002  2.9817234E+002  2.9816873E+002  2.9816575E+002  2.9816328E+002  2.9816126E+002  2.9815963E+002  2.9815833E+002  2.9815733E+002  2.9815658E+002  2.9815606E+002  2.9815577E+002  2.9815629E+002  2.9815662E+002  2.9815719E+002  2.9815802E+002  2.9815914E+002  2.9816059E+002  2.9816241E+002  2.9816467E+002  2.9816744E+002  2.9817080E+002  2.9817487E+002  2.9817977E+002  2.9818563E+002  2.9819264E+002  2.9820099E+002  2.9821091E+002  2.9822266E+002  2.9823655E+002  2.9825289E+002  2.9827207E+002  2.9829450E+002  2.9832063E+002  2.9835093E+002  2.9838590E+002  2.9842605E+002  2.9847188E+002  2.9852386E+002  2.9858240E+002  2.9864779E+002  2.9872019E+002  2.9879957E+002  2.9888567E+002  2.9897792E+002  2.9907544E+002  2.9917700E+002  2.9928101E+002  2.9938557E+002  2.9948847E+002  2.9958732E+002  2.9967961E+002  2.9976284E+002  2.9983464E+002  2.9989290E+002  2.9993586E+002  2.9996218E+002  2.9997105E+002  2.9996218E+002  2.9993586E+002  2.9989290E+002  2.9983464E+002  2.9976284E+002  2.9967961E+002  2.9958732E+002  2.9948847E+002  2.9938557E+002  2.9928101E+002  2.9917700E+002  2.9907544E+002  2.9897792E+002  2.9888567E+002  2.9879957E+002  2.9872019E+002  2.9864779E+002  2.9858240E+002  2.9852386E+002  2.9847188E+002  2.9842605E+002  2.9838590E+002  2.9835093E+002  2.9832063E+002  2.9829450E+002  2.9827207E+002  2.9825289E+002  2.9823655E+002  2.9822266E+002  2.9821091E+002  2.9820099E+002  2.9819264E+002  2.9818563E+002  2.9817977E+002  2.9817487E+002  2.9817080E+002  2.9816744E+002  2.9816467E+002  2.9816241E+002  2.9816059E+002  2.9815914E+002  2.9815802E+002  2.9815719E+002  2.9815662E+002  2.9815629E+002  2.9815685E+002  2.9815720E+002  2.9815783E+002  2.9815875E+002  2.9815999E+002  2.9816160E+002  2.9816364E+002  2.9816616E+002  2.9816926E+002  2.9817304E+002  2.9817761E+002  2.9818314E+002  2.9818978E+002  2.9819775E+002  2.9820727E+002  2.9821862E+002  2.9823212E+002  2.9824814E+002  2.9826707E+002  2.9828940E+002  2.9831563E+002  2.9834633E+002  2.9838211E+002  2.9842363E+002  2.9847158E+002  2.9852662E+002  2.9858942E+002  2.9866056E+002  2.9874054E+002  2.9882966E+002  2.9892800E+002  2.9903534E+002  2.9915107E+002  2.9927415E+002  2.9940306E+002  2.9953580E+002  2.9966989E+002  2.9980242E+002  2.9993021E+002  3.0004990E+002  3.0015812E+002  3.0025167E+002  3.0032770E+002  3.0038380E+002  3.0041821E+002  3.0042980E+002  3.0041821E+002  3.0038380E+002  3.0032770E+002  3.0025167E+002  3.0015812E+002  3.0004990E+002  2.9993021E+002  2.9980242E+002  2.9966989E+002  2.9953580E+002  2.9940306E+002  2.9927415E+002  2.9915107E+002  2.9903534E+002  2.9892800E+002  2.9882966E+002  2.9874054E+002  2.9866056E+002  2.9858942E+002  2.9852662E+002  2.9847158E+002  2.9842363E+002  2.9838211E+002  2.9834633E+002  2.9831563E+002  2.9828940E+002  2.9826707E+002  2.9824814E+002  2.9823212E+002  2.9821862E+002  2.9820727E+002  2.9819775E+002  2.9818978E+002  2.9818314E+002  2.9817761E+002  2.9817304E+002  2.9816926E+002  2.9816616E+002  2.9816364E+002  2.9816160E+002  2.9815999E+002  2.9815875E+002  2.9815783E+002  2.9815720E+002  2.9815685E+002  2.9815743E+002  2.9815782E+002  2.9815851E+002  2.9815952E+002  2.9816090E+002  2.9816268E+002  2.9816494E+002  2.9816774E+002  2.9817120E+002  2.9817542E+002  2.9818056E+002  2.9818677E+002  2.9819426E+002  2.9820327E+002  2.9821408E+002  2.9822702E+002  2.9824247E+002  2.9826087E+002  2.9828272E+002  2.9830859E+002  2.9833913E+002  2.9837505E+002  2.9841715E+002  2.9846626E+002  2.9852328E+002  2.9858915E+002  2.9866476E+002  2.9875097E+002  2.9884853E+002  2.9895797E+002  2.9907957E+002  2.9921321E+002  2.9935827E+002  2.9951356E+002  2.9967724E+002  2.9984677E+002  3.0001893E+002  3.0018990E+002  3.0035542E+002  3.0051097E+002  3.0065198E+002  3.0077413E+002  3.0087353E+002  3.0094697E+002  3.0099203E+002  3.0100722E+002  3.0099203E+002  3.0094697E+002  3.0087353E+002  3.0077413E+002  3.0065198E+002  3.0051097E+002  3.0035542E+002  3.0018990E+002  3.0001893E+002  2.9984677E+002  2.9967724E+002  2.9951356E+002  2.9935827E+002  2.9921321E+002  2.9907957E+002  2.9895797E+002  2.9884853E+002  2.9875097E+002  2.9866476E+002  2.9858915E+002  2.9852328E+002  2.9846626E+002  2.9841715E+002  2.9837505E+002  2.9833913E+002  2.9830859E+002  2.9828272E+002  2.9826087E+002  2.9824247E+002  2.9822702E+002  2.9821408E+002  2.9820327E+002  2.9819426E+002  2.9818677E+002  2.9818056E+002  2.9817542E+002  2.9817120E+002  2.9816774E+002  2.9816494E+002  2.9816268E+002  2.9816090E+002  2.9815952E+002  2.9815851E+002  2.9815782E+002  2.9815743E+002  2.9815804E+002  2.9815846E+002  2.9815922E+002  2.9816033E+002  2.9816185E+002  2.9816381E+002  2.9816631E+002  2.9816942E+002  2.9817325E+002  2.9817796E+002  2.9818368E+002  2.9819064E+002  2.9819905E+002  2.9820920E+002  2.9822143E+002  2.9823611E+002  2.9825370E+002  2.9827474E+002  2.9829983E+002  2.9832967E+002  2.9836507E+002  2.9840691E+002  2.9845620E+002  2.9851403E+002  2.9858157E+002  2.9866005E+002  2.9875073E+002  2.9885483E+002  2.9897344E+002  2.9910746E+002  2.9925747E+002  2.9942355E+002  2.9960516E+002  2.9980099E+002  3.0000883E+002  3.0022549E+002  3.0044681E+002  3.0066773E+002  3.0088255E+002  3.0108512E+002  3.0126927E+002  3.0142910E+002  3.0155935E+002  3.0165567E+002  3.0171479E+002  3.0173472E+002  3.0171479E+002  3.0165567E+002  3.0155935E+002  3.0142910E+002  3.0126927E+002  3.0108512E+002  3.0088255E+002  3.0066773E+002  3.0044681E+002  3.0022549E+002  3.0000883E+002  2.9980099E+002  2.9960516E+002  2.9942355E+002  2.9925747E+002  2.9910746E+002  2.9897344E+002  2.9885483E+002  2.9875073E+002  2.9866005E+002  2.9858157E+002  2.9851403E+002  2.9845620E+002  2.9840691E+002  2.9836507E+002  2.9832967E+002  2.9829983E+002  2.9827474E+002  2.9825370E+002  2.9823611E+002  2.9822143E+002  2.9820920E+002  2.9819905E+002  2.9819064E+002  2.9818368E+002  2.9817796E+002  2.9817325E+002  2.9816942E+002  2.9816631E+002  2.9816381E+002  2.9816185E+002  2.9816033E+002  2.9815922E+002  2.9815846E+002  2.9815804E+002  2.9815867E+002  2.9815913E+002  2.9815995E+002  2.9816117E+002  2.9816283E+002  2.9816499E+002  2.9816774E+002  2.9817117E+002  2.9817541E+002  2.9818062E+002  2.9818699E+002  2.9819474E+002  2.9820414E+002  2.9821552E+002  2.9822927E+002  2.9824585E+002  2.9826579E+002  2.9828972E+002  2.9831839E+002  2.9835264E+002  2.9839346E+002  2.9844195E+002  2.9849938E+002  2.9856713E+002  2.9864673E+002  2.9873982E+002  2.9884808E+002  2.9897323E+002  2.9911689E+002  2.9928045E+002  2.9946496E+002  2.9967088E+002  2.9989789E+002  3.0014463E+002  3.0040852E+002  3.0068558E+002  3.0097045E+002  3.0125643E+002  3.0153580E+002  3.0180023E+002  3.0204128E+002  3.0225088E+002  3.0242189E+002  3.0254842E+002  3.0262612E+002  3.0265232E+002  3.0262612E+002  3.0254842E+002  3.0242189E+002  3.0225088E+002  3.0204128E+002  3.0180023E+002  3.0153580E+002  3.0125643E+002  3.0097045E+002  3.0068558E+002  3.0040852E+002  3.0014463E+002  2.9989789E+002  2.9967088E+002  2.9946496E+002  2.9928045E+002  2.9911689E+002  2.9897323E+002  2.9884808E+002  2.9873982E+002  2.9864673E+002  2.9856713E+002  2.9849938E+002  2.9844195E+002  2.9839346E+002  2.9835264E+002  2.9831839E+002  2.9828972E+002  2.9826579E+002  2.9824585E+002  2.9822927E+002  2.9821552E+002  2.9820414E+002  2.9819474E+002  2.9818699E+002  2.9818062E+002  2.9817541E+002  2.9817117E+002  2.9816774E+002  2.9816499E+002  2.9816283E+002  2.9816117E+002  2.9815995E+002  2.9815913E+002  2.9815867E+002  2.9815931E+002  2.9815981E+002  2.9816071E+002  2.9816204E+002  2.9816385E+002  2.9816621E+002  2.9816922E+002  2.9817299E+002  2.9817766E+002  2.9818340E+002  2.9819044E+002  2.9819904E+002  2.9820949E+002  2.9822219E+002  2.9823758E+002  2.9825620E+002  2.9827868E+002  2.9830576E+002  2.9833834E+002  2.9837744E+002  2.9842424E+002  2.9848013E+002  2.9854667E+002  2.9862561E+002  2.9871893E+002  2.9882875E+002  2.9895735E+002  2.9910708E+002  2.9928027E+002  2.9947906E+002  2.9970521E+002  2.9995979E+002  3.0024294E+002  3.0055343E+002  3.0088835E+002  3.0124285E+002  3.0161000E+002  3.0198090E+002  3.0234510E+002  3.0269116E+002  3.0300745E+002  3.0328294E+002  3.0350788E+002  3.0367437E+002  3.0377660E+002  3.0381107E+002  3.0377660E+002  3.0367437E+002  3.0350788E+002  3.0328294E+002  3.0300745E+002  3.0269116E+002  3.0234510E+002  3.0198090E+002  3.0161000E+002  3.0124285E+002  3.0088835E+002  3.0055343E+002  3.0024294E+002  2.9995979E+002  2.9970521E+002  2.9947906E+002  2.9928027E+002  2.9910708E+002  2.9895735E+002  2.9882875E+002  2.9871893E+002  2.9862561E+002  2.9854667E+002  2.9848013E+002  2.9842424E+002  2.9837744E+002  2.9833834E+002  2.9830576E+002  2.9827868E+002  2.9825620E+002  2.9823758E+002  2.9822219E+002  2.9820949E+002  2.9819904E+002  2.9819044E+002  2.9818340E+002  2.9817766E+002  2.9817299E+002  2.9816922E+002  2.9816621E+002  2.9816385E+002  2.9816204E+002  2.9816071E+002  2.9815981E+002  2.9815931E+002  2.9815997E+002  2.9816051E+002  2.9816148E+002  2.9816292E+002  2.9816489E+002  2.9816746E+002  2.9817074E+002  2.9817486E+002  2.9817997E+002  2.9818628E+002  2.9819403E+002  2.9820351E+002  2.9821508E+002  2.9822917E+002  2.9824630E+002  2.9826709E+002  2.9829229E+002  2.9832277E+002  2.9835958E+002  2.9840394E+002  2.9845730E+002  2.9852133E+002  2.9859796E+002  2.9868939E+002  2.9879812E+002  2.989