<?xml version="1.0"?>
<VTKFile type="UnstructuredGrid" version="0.1" byte_order="LittleEndian">
<!-- Elmer version: 26.2 -->
<!-- Elmer revision: 03313b2 -->
<!-- Elmer compilation date: 2026-05-20 -->
<!-- Solver input file: novapcb_thermal.sif -->
<!-- File started at: 2026/05/23 02:59:03 -->
  <UnstructuredGrid>
    <Piece NumberOfPoints="8280" NumberOfCells="10090">
      <PointData>
        <DataArray type="Float64" Name="temperature" NumberOfComponents="1" format="ascii">
  7.4909612E+001  7.4914331E+001  7.4928199E+001  7.4950346E+001  7.4979336E+001  7.5013180E+001  7.5049386E+001  7.5085040E+001  7.5116930E+001  7.5141729E+001  7.5156210E+001  7.5157486E+001  7.5143236E+001  7.5111880E+001  7.5062671E+001  7.4995684E+001  7.4911711E+001  7.4812084E+001  7.4698466E+001  7.4572661E+001  7.4436464E+001  7.4291570E+001  7.4139535E+001  7.3981781E+001  7.3819620E+001  7.3654291E+001  7.3486995E+001  7.3318920E+001  7.3151260E+001  7.2985222E+001  7.2822026E+001  7.2662894E+001  7.2509039E+001  7.2361643E+001  7.2221842E+001  7.2090703E+001  7.1969209E+001  7.1858247E+001  7.1758603E+001  7.1670954E+001  7.1595872E+001  7.1533829E+001  7.1485199E+001  7.1450266E+001  7.1429227E+001  7.1422202E+001  7.4914055E+001  7.4918921E+001  7.4933228E+001  7.4956106E+001  7.4986107E+001  7.5021223E+001  7.5058922E+001  7.5096224E+001  7.5129828E+001  7.5156292E+001  7.5172262E+001  7.5174731E+001  7.5161283E+001  7.5130287E+001  7.5081001E+001  7.5013561E+001  7.4928855E+001  7.4828324E+001  7.4713736E+001  7.4586972E+001  7.4449872E+001  7.4304147E+001  7.4151350E+001  7.3992887E+001  7.3830052E+001  7.3664066E+001  7.3496117E+001  7.3327383E+001  7.3159057E+001  7.2992346E+001  7.2828475E+001  7.2668674E+001  7.2514167E+001  7.2366145E+001  7.2225756E+001  7.2094074E+001  7.1972089E+001  7.1860694E+001  7.1760674E+001  7.1672707E+001  7.1597363E+001  7.1535110E+001  7.1486321E+001  7.1451276E+001  7.1430172E+001  7.1423124E+001  7.4927090E+001  7.4932397E+001  7.4948027E+001  7.4973103E+001  7.5006159E+001  7.5045129E+001  7.5087369E+001  7.5129711E+001  7.5168576E+001  7.5200169E+001  7.5220737E+001  7.5226886E+001  7.5215896E+001  7.5185975E+001  7.5136398E+001  7.5067493E+001  7.4980464E+001  7.4877115E+001  7.4759537E+001  7.4629850E+001  7.4490025E+001  7.4341815E+001  7.4186748E+001  7.4026180E+001  7.3861340E+001  7.3693396E+001  7.3523494E+001  7.3352788E+001  7.3182461E+001  7.3013725E+001  7.2847820E+001  7.2686004E+001  7.2529527E+001  7.2379619E+001  7.2237454E+001  7.2104137E+001  7.1980677E+001  7.1867979E+001  7.1766831E+001  7.1677911E+001  7.1601782E+001  7.1538904E+001  7.1489640E+001  7.1454263E+001  7.1432962E+001  7.1425850E+001  7.4947848E+001  7.4953889E+001  7.4971725E+001  7.5000485E+001  7.5038687E+001  7.5084201E+001  7.5134220E+001  7.5185275E+001  7.5233318E+001  7.5273926E+001  7.5302614E+001  7.5315263E+001  7.5308567E+001  7.5280416E+001  7.5230122E+001  7.5158392E+001  7.5067059E+001  7.4958628E+001  7.4835798E+001  7.4701097E+001  7.4556696E+001  7.4404374E+001  7.4245592E+001  7.4081586E+001  7.3913467E+001  7.3742305E+001  7.3569173E+001  7.3395188E+001  7.3221517E+001  7.3049386E+001  7.2880062E+001  7.2714848E+001  7.2555051E+001  7.2401958E+001  7.2256803E+001  7.2120736E+001  7.1994803E+001  7.1879927E+001  7.1776903E+001  7.1686401E+001  7.1608973E+001  7.1545063E+001  7.1495018E+001  7.1459094E+001  7.1437470E+001  7.1430250E+001  7.4974880E+001  7.4981942E+001  7.5002858E+001  7.5036792E+001  7.5082288E+001  7.5137184E+001  7.5198514E+001  7.5262432E+001  7.5324227E+001  7.5378511E+001  7.5419623E+001  7.5442230E+001  7.5442015E+001  7.5416301E+001  7.5364441E+001  7.5287831E+001  7.5189441E+001  7.5073017E+001  7.4942256E+001  7.4800271E+001  7.4649433E+001  7.4491467E+001  7.4327648E+001  7.4158995E+001  7.3986423E+001  7.3810848E+001  7.3633247E+001  7.3454683E+001  7.3276315E+001  7.3099384E+001  7.2925207E+001  7.2755154E+001  7.2590619E+001  7.2432983E+001  7.2283570E+001  7.2143603E+001  7.2014178E+001  7.1896244E+001  7.1790598E+001  7.1697899E+001  7.1618675E+001  7.1553343E+001  7.1502223E+001  7.1465549E+001  7.1443483E+001  7.1436117E+001  7.5006172E+001  7.5014527E+001  7.5039355E+001  7.5079913E+001  7.5134861E+001  7.5202118E+001  7.5278648E+001  7.5360239E+001  7.5441357E+001  7.5515238E+001  7.5574389E+001  7.5611511E+001  7.5620610E+001  7.5597973E+001  7.5542955E+001  7.5458114E+001  7.5348529E+001  7.5220140E+001  7.5078208E+001  7.4926518E+001  7.4767478E+001  7.4602540E+001  7.4432595E+001  7.4258289E+001  7.4080239E+001  7.3899151E+001  7.3715884E+001  7.3531450E+001  7.3347004E+001  7.3163819E+001  7.2983279E+001  7.2806852E+001  7.2636061E+001  7.2472427E+001  7.2317408E+001  7.2172337E+001  7.2038375E+001  7.1916499E+001  7.1807501E+001  7.1712012E+001  7.1630521E+001  7.1563404E+001  7.1510939E+001  7.1473330E+001  7.1450713E+001  7.1443165E+001  7.5039186E+001  7.5049069E+001  7.5078543E+001  7.5127042E+001  7.5193497E+001  7.5276116E+001  7.5372046E+001  7.5476913E+001  7.5584337E+001  7.5685706E+001  7.5770672E+001  7.5828669E+001  7.5851018E+001  7.5832319E+001  7.5771240E+001  7.5672413E+001  7.5544861E+001  7.5398964E+001  7.5242096E+001  7.5078336E+001  7.4909661E+001  7.4736840E+001  7.4560067E+001  7.4379404E+001  7.4195048E+001  7.4007456E+001  7.3817366E+001  7.3625764E+001  7.3433822E+001  7.3242861E+001  7.3054344E+001  7.2869872E+001  7.2691150E+001  7.2519915E+001  7.2357829E+001  7.2206376E+001  7.2066804E+001  7.1940110E+001  7.1827058E+001  7.1728226E+001  7.1644040E+001  7.1574812E+001  7.1520766E+001  7.1482061E+001  7.1458798E+001  7.1451038E+001  7.5070935E+001  7.5082517E+001  7.5117185E+001  7.5174664E+001  7.5254357E+001  7.5355094E+001  7.5474680E+001  7.5609149E+001  7.5751678E+001  7.5891487E+001  7.6013793E+001  7.6102090E+001  7.6142917E+001  7.6129757E+001  7.6059758E+001  7.5934171E+001  7.5776974E+001  7.5606585E+001  7.5430983E+001  7.5253335E+001  7.5074342E+001  7.4893457E+001  7.4709749E+001  7.4522437E+001  7.4331185E+001  7.4136188E+001  7.3938127E+001  7.3738029E+001  7.3537125E+001  7.3336786E+001  7.3138545E+001  7.2944156E+001  7.2755593E+001  7.2574931E+001  7.2404149E+001  7.2244952E+001  7.2098680E+001  7.1966321E+001  7.1848570E+001  7.1745907E+001  7.1658659E+001  7.1587051E+001  7.1531231E+001  7.1491300E+001  7.1467318E+001  7.1459321E+001  7.5098107E+001  7.5111465E+001  7.5151590E+001  7.5218610E+001  7.5312633E+001  7.5433524E+001  7.5580452E+001  7.5750972E+001  7.5939247E+001  7.6133072E+001  7.6311183E+001  7.6445550E+001  7.6511221E+001  7.6501133E+001  7.6417556E+001  7.6240461E+001  7.6038739E+001  7.5837151E+001  7.5640046E+001  7.5448085E+001  7.5259463E+001  7.5071484E+001  7.4881574E+001  7.4687838E+001  7.4489326E+001  7.4286046E+001  7.4078782E+001  7.3868778E+001  7.3657410E+001  7.3446047E+001  7.3236187E+001  7.3029715E+001  7.2829015E+001  7.2636742E+001  7.2455404E+001  7.2287012E+001  7.2132972E+001  7.1994182E+001  7.1871185E+001  7.1764301E+001  7.1673714E+001  7.1599529E+001  7.1541799E+001  7.1500553E+001  7.1475802E+001  7.1467551E+001  7.5117254E+001  7.5132338E+001  7.5177795E+001  7.5254239E+001  7.5362666E+001  7.5504368E+001  7.5680670E+001  7.5892220E+001  7.6137138E+001  7.6406168E+001  7.6672276E+001  7.6883877E+001  7.6986256E+001  7.6957594E+001  7.6816816E+001  7.6573485E+001  7.6318307E+001  7.6080957E+001  7.5862285E+001  7.5658189E+001  7.5462804E+001  7.5270346E+001  7.5076062E+001  7.4876713E+001  7.4670723E+001  7.4458102E+001  7.4240102E+001  7.4018593E+001  7.3795294E+001  7.3571396E+001  7.3347934E+001  7.3126749E+001  7.2910913E+001  7.2704243E+001  7.2510180E+001  7.2331111E+001  7.2168352E+001  7.2022528E+001  7.1893900E+001  7.1782548E+001  7.1688462E+001  7.1611596E+001  7.1551890E+001  7.1509288E+001  7.1483746E+001  7.1475235E+001  7.5125038E+001  7.5141652E+001  7.5191855E+001  7.5276763E+001  7.5398322E+001  7.5559440E+001  7.5764131E+001  7.6017550E+001  7.6325397E+001  7.6690877E+001  7.7099269E+001  7.7468101E+001  7.7637720E+001  7.7545736E+001  7.7258499E+001  7.6913909E+001  7.6596572E+001  7.6324036E+001  7.6088758E+001  7.5878767E+001  7.5682545E+001  7.5490357E+001  7.5294846E+001  7.5091279E+001  7.4877544E+001  7.4653967E+001  7.4422883E+001  7.4187738E+001  7.3951339E+001  7.3714141E+001  7.3475403E+001  7.3235930E+001  7.3000490E+001  7.2775531E+001  7.2566312E+001  7.2375291E+001  7.2203170E+001  7.2049994E+001  7.1915587E+001  7.1799706E+001  7.1702107E+001  7.1622567E+001  7.1560899E+001  7.1516956E+001  7.1490632E+001  7.1481865E+001  7.5118501E+001  7.5136303E+001  7.5190203E+001  7.5281735E+001  7.5413665E+001  7.5590348E+001  7.5818363E+001  7.6107581E+001  7.6472999E+001  7.6937543E+001  7.7536191E+001  7.8251525E+001  7.8695733E+001  7.8331783E+001  7.7726312E+001  7.7226854E+001  7.6845622E+001  7.6548938E+001  7.6309652E+001  7.6105469E+001  7.5918185E+001  7.5733551E+001  7.5541392E+001  7.5335511E+001  7.5113429E+001  7.4876139E+001  7.4627822E+001  7.4375098E+001  7.4124751E+001  7.3877163E+001  7.3622797E+001  7.3359536E+001  7.3095495E+001  7.2846860E+001  7.2620572E+001  7.2417047E+001  7.2235490E+001  7.2075064E+001  7.1935037E+001  7.1814795E+001  7.1713834E+001  7.1631749E+001  7.1568221E+001  7.1523010E+001  7.1495949E+001  7.1486940E+001  7.5095340E+001  7.5113870E+001  7.5170028E+001  7.5265599E+001  7.5403833E+001  7.5589964E+001  7.5832158E+001  7.6143354E+001  7.6545027E+001  7.7075960E+001  7.7815392E+001  7.8978221E+001  8.0175955E+001  7.9094257E+001  7.8058258E+001  7.7444871E+001  7.7032209E+001  7.6737737E+001  7.6516258E+001  7.6336002E+001  7.6171865E+001  7.6004782E+001  7.5821887E+001  7.5615947E+001  7.5384332E+001  7.5128780E+001  7.4855895E+001  7.4577061E+001  7.4307723E+001  7.4061648E+001  7.3812925E+001  7.3498522E+001  7.3186983E+001  7.2911701E+001  7.2668784E+001  7.2453516E+001  7.2263246E+001  7.2096184E+001  7.1951041E+001  7.1826847E+001  7.1722852E+001  7.1638477E+001  7.1573279E+001  7.1526932E+001  7.1499212E+001  7.1489986E+001  7.5054131E+001  7.5072856E+001  7.5129607E+001  7.5226188E+001  7.5365880E+001  7.5553952E+001  7.5798602E+001  7.6112759E+001  7.6517765E+001  7.7051767E+001  7.7792247E+001  7.8955469E+001  8.0164125E+001  7.9104960E+001  7.8093938E+001  7.7508365E+001  7.7129487E+001  7.6876423E+001  7.6703097E+001  7.6572002E+001  7.6450343E+001  7.6313095E+001  7.6146083E+001  7.5942484E+001  7.5699746E+001  7.5419388E+001  7.5109666E+001  7.4788760E+001  7.4481709E+001  7.4230003E+001  7.4023184E+001  7.3616218E+001  7.3256837E+001  7.2962567E+001  7.2706659E+001  7.2481930E+001  7.2284487E+001  7.2111902E+001  7.1962482E+001  7.1834977E+001  7.1728439E+001  7.1642147E+001  7.1575553E+001  7.1528258E+001  7.1499987E+001  7.1490581E+001  7.4994457E+001  7.5012839E+001  7.5068498E+001  7.5163029E+001  7.5299292E+001  7.5481764E+001  7.5717134E+001  7.6015314E+001  7.6391070E+001  7.6866314E+001  7.7471549E+001  7.8187981E+001  7.8663920E+001  7.8365465E+001  7.7829729E+001  7.7410942E+001  7.7129704E+001  7.6956501E+001  7.6866537E+001  7.6823082E+001  7.6768383E+001  7.6672881E+001  7.6527619E+001  7.6328695E+001  7.6073831E+001  7.5762223E+001  7.5397674E+001  7.5003839E+001  7.4632026E+001  7.4307507E+001  7.3999936E+001  7.3641034E+001  7.3295555E+001  7.2994190E+001  7.2731100E+001  7.2500149E+001  7.2297645E+001  7.2121026E+001  7.1968425E+001  7.1838437E+001  7.1729987E+001  7.1642250E+001  7.1574606E+001  7.1526597E+001  7.1497912E+001  7.1488371E+001  7.4916922E+001  7.4934479E+001  7.4987547E+001  7.5077346E+001  7.5205993E+001  7.5376617E+001  7.5593486E+001  7.5861972E+001  7.6187845E+001  7.6573937E+001  7.7004911E+001  7.7402813E+001  7.7622509E+001  7.7604843E+001  7.7413784E+001  7.7199385E+001  7.7044968E+001  7.6972390E+001  7.6989786E+001  7.7077144E+001  7.7106827E+001  7.7059016E+001  7.6938893E+001  7.6746725E+001  7.6480654E+001  7.6136608E+001  7.5705304E+001  7.5201894E+001  7.4747667E+001  7.4350093E+001  7.3983106E+001  7.3634451E+001  7.3305104E+001  7.3006159E+001  7.2740877E+001  7.2506984E+001  7.2301700E+001  7.2122715E+001  7.1968187E+001  7.1836671E+001  7.1727034E+001  7.1638401E+001  7.1570103E+001  7.1521652E+001  7.1492711E+001  7.1483086E+001  7.4823048E+001  7.4839403E+001  7.4888726E+001  7.4971785E+001  7.5089830E+001  7.5244498E+001  7.5437552E+001  7.5670145E+001  7.5940980E+001  7.6241607E+001  7.6546892E+001  7.6809296E+001  7.6978110E+001  7.7031209E+001  7.6997142E+001  7.6933585E+001  7.6896334E+001  7.6921498E+001  7.7034290E+001  7.7216696E+001  7.7317964E+001  7.7315284E+001  7.7220158E+001  7.7036430E+001  7.6762753E+001  7.6392559E+001  7.5911535E+001  7.5339459E+001  7.4823517E+001  7.4378541E+001  7.3983006E+001  7.3624010E+001  7.3296743E+001  7.3000758E+001  7.2736294E+001  7.2502118E+001  7.2296193E+001  7.2116515E+001  7.1961366E+001  7.1829336E+001  7.1719294E+001  7.1630355E+001  7.1561837E+001  7.1513237E+001  7.1484212E+001  7.1474559E+001  7.4715081E+001  7.4729989E+001  7.4774831E+001  7.4849941E+001  7.4955765E+001  7.5092652E+001  7.5260405E+001  7.5457390E+001  7.5678834E+001  7.5914068E+001  7.6144128E+001  7.6343953E+001  7.6491383E+001  7.6579648E+001  7.6623085E+001  7.6652201E+001  7.6702109E+001  7.6804750E+001  7.6987789E+001  7.7232204E+001  7.7383639E+001  7.7416472E+001  7.7343078E+001  7.7168994E+001  7.6893408E+001  7.6509192E+001  7.6002524E+001  7.5397903E+001  7.4849484E+001  7.4378836E+001  7.3967173E+001  7.3601435E+001  7.3273823E+001  7.2980205E+001  7.2718177E+001  7.2485790E+001  7.2281115E+001  7.2102331E+001  7.1947842E+001  7.1816314E+001  7.1706661E+001  7.1618022E+001  7.1549728E+001  7.1501284E+001  7.1472351E+001  7.1462729E+001  7.4595751E+001  7.4609094E+001  7.4649130E+001  7.4715836E+001  7.4809044E+001  7.4928192E+001  7.5071900E+001  7.5237262E+001  7.5418842E+001  7.5607702E+001  7.5791450E+001  7.5956510E+001  7.6092810E+001  7.6198833E+001  7.6284094E+001  7.6367517E+001  7.6473335E+001  7.6627403E+001  7.6855440E+001  7.7137944E+001  7.7320134E+001  7.7376336E+001  7.7319416E+001  7.7155674E+001  7.6884793E+001  7.6499934E+001  7.5988003E+001  7.5375129E+001  7.4817938E+001  7.4340373E+001  7.3925189E+001  7.3559525E+001  7.3234693E+001  7.2945143E+001  7.2687273E+001  7.2458511E+001  7.2256792E+001  7.2080368E+001  7.1927752E+001  7.1797704E+001  7.1689212E+001  7.1601465E+001  7.1533834E+001  7.1485848E+001  7.1457183E+001  7.1447648E+001  7.4468022E+001  7.4479796E+001  7.4515039E+001  7.4573488E+001  7.4654576E+001  7.4757232E+001  7.4879562E+001  7.5018431E+001  7.5169030E+001  7.5324737E+001  7.5477686E+001  7.5620398E+001  7.5748238E+001  7.5861799E+001  7.5968119E+001  7.6080256E+001  7.6215841E+001  7.6395825E+001  7.6643938E+001  7.6941305E+001  7.7135192E+001  7.7201813E+001  7.7155142E+001  7.7001964E+001  7.6742376E+001  7.6369906E+001  7.5871272E+001  7.5271685E+001  7.4726558E+001  7.4259292E+001  7.3852953E+001  7.3495354E+001  7.3178157E+001  7.2895738E+001  7.2644255E+001  7.2420970E+001  7.2223802E+001  7.2051089E+001  7.1901465E+001  7.1773806E+001  7.1667197E+001  7.1580901E+001  7.1514346E+001  7.1467102E+001  7.1438872E+001  7.1429481E+001  7.4334887E+001  7.4345165E+001  7.4375873E+001  7.4426608E+001  7.4496604E+001  7.4584591E+001  7.4688602E+001  7.4805781E+001  7.4932271E+001  7.5063360E+001  7.5194051E+001  7.5320124E+001  7.5439487E+001  7.5553400E+001  7.5667129E+001  7.5789888E+001  7.5934365E+001  7.6116762E+001  7.6358783E+001  7.6645180E+001  7.6829440E+001  7.6892747E+001  7.6849853E+001  7.6707061E+001  7.6464778E+001  7.6117626E+001  7.5652125E+001  7.5088988E+001  7.4577549E+001  7.4137049E+001  7.3750979E+001  7.3409122E+001  7.3104637E+001  7.2832750E+001  7.2590065E+001  7.2374099E+001  7.2182967E+001  7.2015186E+001  7.1869557E+001  7.1745102E+001  7.1641024E+001  7.1556683E+001  7.1491580E+001  7.1445337E+001  7.1417694E+001  7.1408496E+001  7.4199204E+001  7.4208110E+001  7.4234682E+001  7.4278460E+001  7.4338621E+001  7.4413893E+001  7.4502465E+001  7.4601924E+001  7.4709290E+001  7.4821228E+001  7.4934490E+001  7.5046585E+001  7.5156544E+001  7.5265563E+001  7.5377328E+001  7.5497956E+001  7.5635683E+001  7.5800679E+001  7.6007581E+001  7.6245404E+001  7.6394592E+001  7.6441770E+001  7.6397005E+001  7.6264122E+001  7.6043731E+001  7.5733317E+001  7.5324397E+001  7.4832388E+001  7.4379506E+001  7.3980085E+001  7.3623430E+001  7.3303568E+001  7.3016128E+001  7.2757816E+001  7.2526130E+001  7.2319145E+001  7.2135357E+001  7.1973563E+001  7.1832788E+001  7.1712232E+001  7.1611242E+001  7.1529290E+001  7.1465963E+001  7.1420946E+001  7.1394022E+001  7.1385061E+001  7.4063602E+001  7.4071283E+001  7.4094177E+001  7.4131827E+001  7.4183435E+001  7.4247833E+001  7.4323444E+001  7.4408298E+001  7.4500108E+001  7.4596464E+001  7.4695153E+001  7.4794567E+001  7.4894129E+001  7.4994612E+001  7.5098234E+001  7.5208462E+001  7.5329470E+001  7.5465161E+001  7.5615438E+001  7.5760869E+001  7.5855895E+001  7.5879665E+001  7.5829465E+001  7.5705812E+001  7.5509432E+001  7.5241317E+001  7.4905890E+001  7.4526015E+001  7.4149643E+001  7.3798973E+001  7.3477132E+001  7.3183258E+001  7.2915852E+001  7.2673358E+001  7.2454369E+001  7.2257679E+001  7.2082275E+001  7.1927310E+001  7.1792074E+001  7.1675975E+001  7.1578520E+001  7.1499308E+001  7.1438020E+001  7.1394412E+001  7.1368315E+001  7.1359627E+001  7.3930426E+001  7.3937033E+001  7.3956716E+001  7.3989045E+001  7.4033297E+001  7.4088441E+001  7.4153144E+001  7.4225805E+001  7.4304644E+001  7.4387852E+001  7.4473806E+001  7.4561310E+001  7.4649817E+001  7.4739557E+001  7.4831474E+001  7.4926909E+001  7.5026890E+001  7.5130585E+001  7.5231928E+001  7.5316595E+001  7.5366600E+001  7.5366953E+001  7.5310482E+001  7.5195266E+001  7.5022077E+001  7.4794422E+001  7.4521185E+001  7.4219254E+001  7.3908726E+001  7.3606223E+001  7.3320186E+001  7.3053725E+001  7.2807759E+001  7.2582318E+001  7.2377061E+001  7.2191522E+001  7.2025210E+001  7.1877661E+001  7.1748452E+001  7.1637212E+001  7.1543620E+001  7.1467406E+001  7.1408353E+001  7.1366292E+001  7.1341103E+001  7.1332714E+001  7.3801728E+001  7.3807407E+001  7.3824314E+001  7.3852067E+001  7.3890027E+001  7.3937302E+001  7.3992772E+001  7.4055124E+001  7.4122934E+001  7.4194770E+001  7.4269332E+001  7.4345586E+001  7.4422867E+001  7.4500890E+001  7.4579615E+001  7.4658901E+001  7.4737842E+001  7.4813650E+001  7.4880436E+001  7.4929135E+001  7.4949190E+001  7.4931416E+001  7.4869881E+001  7.4762259E+001  7.4609326E+001  7.4414983E+001  7.4186811E+001  7.3935746E+001  7.3674202E+001  7.3413168E+001  7.3160446E+001  7.2920592E+001  7.2695997E+001  7.2487845E+001  7.2296666E+001  7.2122642E+001  7.1965768E+001  7.1825948E+001  7.1703043E+001  7.1596900E+001  7.1507370E+001  7.1434316E+001  7.1377622E+001  7.1337196E+001  7.1312967E+001  7.1304895E+001  7.3679281E+001  7.3684162E+001  7.3698690E+001  7.3722528E+001  7.3755118E+001  7.3795696E+001  7.3843309E+001  7.3896863E+001  7.3955172E+001  7.4017041E+001  7.4081339E+001  7.4147077E+001  7.4213438E+001  7.4279734E+001  7.4345262E+001  7.4409014E+001  7.4469212E+001  7.4522767E+001  7.4564923E+001  7.4589465E+001  7.4589645E+001  7.4559482E+001  7.4494842E+001  7.4393969E+001  7.4257613E+001  7.4089049E+001  7.3893961E+001  7.3679933E+001  7.3455347E+001  7.3228058E+001  7.3004397E+001  7.2788882E+001  7.2584469E+001  7.2393009E+001  7.2215634E+001  7.2053026E+001  7.1905586E+001  7.1773539E+001  7.1657004E+001  7.1556031E+001  7.1470634E+001  7.1400804E+001  7.1346522E+001  7.1307768E+001  7.1284524E+001  7.1276777E+001  7.3564599E+001  7.3568799E+001  7.3581297E+001  7.3601799E+001  7.3629818E+001  7.3664690E+001  7.3705599E+001  7.3751604E+001  7.3801684E+001  7.3854786E+001  7.3909873E+001  7.3965954E+001  7.4022085E+001  7.4077312E+001  7.4130551E+001  7.4180382E+001  7.4224791E+001  7.4260933E+001  7.4285062E+001  7.4292755E+001  7.4279452E+001  7.4241160E+001  7.4175104E+001  7.4080157E+001  7.3957032E+001  7.3808290E+001  7.3638150E+001  7.3452059E+001  7.3256033E+001  7.3055911E+001  7.2856774E+001  7.2662656E+001  7.2476552E+001  7.2300592E+001  7.2136260E+001  7.1984580E+001  7.1846258E+001  7.1721782E+001  7.1611486E+001  7.1515601E+001  7.1434286E+001  7.1367649E+001  7.1315761E+001  7.1278670E+001  7.1256405E+001  7.1248981E+001  7.3458968E+001  7.3462590E+001  7.3473367E+001  7.3491038E+001  7.3515175E+001  7.3545198E+001  7.3580387E+001  7.3619916E+001  7.3662873E+001  7.3708300E+001  7.3755209E+001  7.3802604E+001  7.3849459E+001  7.3894676E+001  7.3936991E+001  7.3974857E+001  7.4006310E+001  7.4028883E+001  7.4039630E+001  7.4035314E+001  7.4012747E+001  7.3969215E+001  7.3902877E+001  7.3813075E+001  7.3700476E+001  7.3567084E+001  7.3416072E+001  7.3251484E+001  7.3077811E+001  7.2899535E+001  7.2720759E+001  7.2544973E+001  7.2374987E+001  7.2212975E+001  7.2060585E+001  7.1919046E+001  7.1789275E+001  7.1671955E+001  7.1567596E+001  7.1476577E+001  7.1399181E+001  7.1335617E+001  7.1286040E+001  7.1250557E+001  7.1229239E+001  7.1222129E+001  7.3363473E+001  7.3366608E+001  7.3375934E+001  7.3391220E+001  7.3412082E+001  7.3438003E+001  7.3468338E+001  7.3502341E+001  7.3539178E+001  7.3577953E+001  7.3617716E+001  7.3657469E+001  7.3696154E+001  7.3732612E+001  7.3765534E+001  7.3793391E+001  7.3814381E+001  7.3826408E+001  7.3827142E+001  7.3814160E+001  7.3785176E+001  7.3738312E+001  7.3672355E+001  7.3586960E+001  7.3482753E+001  7.3361328E+001  7.3225137E+001  7.3077274E+001  7.2921202E+001  7.2760460E+001  7.2598404E+001  7.2438033E+001  7.2281902E+001  7.2132113E+001  7.1990354E+001  7.1857960E+001  7.1735980E+001  7.1625235E+001  7.1526365E+001  7.1439868E+001  7.1366129E+001  7.1305444E+001  7.1258034E+001  7.1224062E+001  7.1203637E+001  7.1196821E+001  7.3279022E+001  7.3281752E+001  7.3289870E+001  7.3303166E+001  7.3321293E+001  7.3343780E+001  7.3370039E+001  7.3399381E+001  7.3431029E+001  7.3464132E+001  7.3497771E+001  7.3530961E+001  7.3562642E+001  7.3591655E+001  7.3616714E+001  7.3636377E+001  7.3649030E+001  7.3652903E+001  7.3646128E+001  7.3626853E+001  7.3593403E+001  7.3544455E+001  7.3479212E+001  7.3397534E+001  7.3300006E+001  7.3187935E+001  7.3063268E+001  7.2928451E+001  7.2786236E+001  7.2639489E+001  7.2491006E+001  7.2343376E+001  7.2198899E+001  7.2059556E+001  7.1927009E+001  7.1802631E+001  7.1687547E+001  7.1582667E+001  7.1488725E+001  7.1406307E+001  7.1335880E+001  7.1277810E+001  7.1232374E+001  7.1199781E+001  7.1180169E+001  7.1173623E+001  7.3206369E+001  7.3208767E+001  7.3215896E+001  7.3227561E+001  7.3243443E+001  7.3263106E+001  7.3286002E+001  7.3311486E+001  7.3338823E+001  7.3367197E+001  7.3395719E+001  7.3423425E+001  7.3449274E+001  7.3472138E+001  7.3490787E+001  7.3503888E+001  7.3510006E+001  7.3507633E+001  7.3495250E+001  7.3471409E+001  7.3434851E+001  7.3384627E+001  7.3320215E+001  7.3241606E+001  7.3149350E+001  7.3044550E+001  7.2928804E+001  7.2804106E+001  7.2672714E+001  7.2537011E+001  7.2399374E+001  7.2262064E+001  7.2127158E+001  7.1996503E+001  7.1871708E+001  7.1754145E+001  7.1644973E+001  7.1545156E+001  7.1455492E+001  7.1376633E+001  7.1309106E+001  7.1253331E+001  7.1209633E+001  7.1178254E+001  7.1159362E+001  7.1153053E+001  7.3146128E+001  7.3148261E+001  7.3154601E+001  7.3164965E+001  7.3179054E+001  7.3196457E+001  7.3216658E+001  7.3239041E+001  7.3262905E+001  7.3287462E+001  7.3311850E+001  7.3335130E+001  7.3356293E+001  7.3374249E+001  7.3387838E+001  7.3395830E+001  7.3396942E+001  7.3389875E+001  7.3373361E+001  7.3346240E+001  7.3307536E+001  7.3256552E+001  7.3192948E+001  7.3116798E+001  7.3028622E+001  7.2929380E+001  7.2820429E+001  7.2703450E+001  7.2580355E+001  7.2453182E+001  7.2323999E+001  7.2194818E+001  7.2067530E+001  7.1943863E+001  7.1825361E+001  7.1713375E+001  7.1609076E+001  7.1513458E+001  7.1427360E+001  7.1351480E+001  7.1286388E+001  7.1232546E+001  7.1190313E+001  7.1159960E+001  7.1141675E+001  7.1135567E+001  7.3098784E+001  7.3100717E+001  7.3106455E+001  7.3115827E+001  7.3128547E+001  7.3144223E+001  7.3162359E+001  7.3182366E+001  7.3203561E+001  7.3225184E+001  7.3246394E+001  7.3266278E+001  7.3283855E+001  7.3298081E+001  7.3307856E+001  7.3312037E+001  7.3309463E+001  7.3298986E+001  7.3279522E+001  7.3250104E+001  7.3209952E+001  7.3158533E+001  7.3095624E+001  7.3021354E+001  7.2936219E+001  7.2841079E+001  7.2737128E+001  7.2625833E+001  7.2508868E+001  7.2388033E+001  7.2265175E+001  7.2142123E+001  7.2020623E+001  7.1902306E+001  7.1788657E+001  7.1681002E+001  7.1580508E+001  7.1488185E+001  7.1404897E+001  7.1331371E+001  7.1268210E+001  7.1215903E+001  7.1174836E+001  7.1145301E+001  7.1127499E+001  7.1121553E+001  7.3064709E+001  7.3066499E+001  7.3071815E+001  7.3080488E+001  7.3092244E+001  7.3106702E+001  7.3123381E+001  7.3141706E+001  7.3161015E+001  7.3180561E+001  7.3199523E+001  7.3217008E+001  7.3232060E+001  7.3243671E+001  7.3250788E+001  7.3252335E+001  7.3247235E+001  7.3234447E+001  7.3213007E+001  7.3182076E+001  7.3140996E+001  7.3089341E+001  7.3026962E+001  7.2954017E+001  7.2870986E+001  7.2778667E+001  7.2678144E+001  7.2570750E+001  7.2458001E+001  7.2341541E+001  7.2223072E+001  7.2104293E+001  7.1986853E+001  7.1872310E+001  7.1762102E+001  7.1657531E+001  7.1559760E+001  7.1469803E+001  7.1388540E+001  7.1316715E+001  7.1254951E+001  7.1203758E+001  7.1163537E+001  7.1134596E+001  7.1117147E+001  7.1111317E+001  7.3044161E+001  7.3045868E+001  7.3050931E+001  7.3059189E+001  7.3070372E+001  7.3084105E+001  7.3099916E+001  7.3117241E+001  7.3135425E+001  7.3153733E+001  7.3171355E+001  7.3187411E+001  7.3200964E+001  7.3211027E+001  7.3216577E+001  7.3216578E+001  7.3210005E+001  7.3195878E+001  7.3173302E+001  7.3141510E+001  7.3099915E+001  7.3048146E+001  7.2986096E+001  7.2913939E+001  7.2832146E+001  7.2741477E+001  7.2642958E+001  7.2537842E+001  7.2427561E+001  7.2313668E+001  7.2197780E+001  7.2081525E+001  7.1966490E+001  7.1854191E+001  7.1746036E+001  7.1643313E+001  7.1547176E+001  7.1458644E+001  7.1378601E+001  7.1307804E+001  7.1246886E+001  7.1196367E+001  7.1156660E+001  7.1128079E+001  7.1110844E+001  7.1105085E+001  7.3037295E+001  7.3038973E+001  7.3043954E+001  7.3052074E+001  7.3063066E+001  7.3076558E+001  7.3092082E+001  7.3109074E+001  7.3126884E+001  7.3144781E+001  7.3161958E+001  7.3177540E+001  7.3190596E+001  7.3200146E+001  7.3205178E+001  7.3204670E+001  7.3197613E+001  7.3183047E+001  7.3160101E+001  7.3128030E+001  7.3086269E+001  7.3034468E+001  7.2972529E+001  7.2900633E+001  7.2819248E+001  7.2729122E+001  7.2631262E+001  7.2526896E+001  7.2417428E+001  7.2304381E+001  7.2189345E+001  7.2073924E+001  7.1959687E+001  7.1848132E+001  7.1740660E+001  7.1638551E+001  7.1542959E+001  7.1454903E+001  7.1375268E+001  7.1304814E+001  7.1244179E+001  7.1193886E+001  7.1154351E+001  7.1125891E+001  7.1108728E+001  7.1102992E+001  7.5027948E+001  7.5032689E+001  7.5046622E+001  7.5068875E+001  7.5098002E+001  7.5132007E+001  7.5168385E+001  7.5204208E+001  7.5236250E+001  7.5261167E+001  7.5275717E+001  7.5276999E+001  7.5262681E+001  7.5231176E+001  7.5181733E+001  7.5114427E+001  7.5030056E+001  7.4929955E+001  7.4815798E+001  7.4689395E+001  7.4552551E+001  7.4406969E+001  7.4254212E+001  7.4095708E+001  7.3932777E+001  7.3766663E+001  7.3598572E+001  7.3429699E+001  7.3261242E+001  7.3094415E+001  7.2930444E+001  7.2770556E+001  7.2615970E+001  7.2467874E+001  7.2327409E+001  7.2195646E+001  7.2073575E+001  7.1962087E+001  7.1861969E+001  7.1773903E+001  7.1698465E+001  7.1636127E+001  7.1587266E+001  7.1552167E+001  7.1531029E+001  7.1523970E+001  7.5032411E+001  7.5037300E+001  7.5051675E+001  7.5074662E+001  7.5104806E+001  7.5140088E+001  7.5177966E+001  7.5215445E+001  7.5249209E+001  7.5275799E+001  7.5291845E+001  7.5294326E+001  7.5280813E+001  7.5249670E+001  7.5200150E+001  7.5132390E+001  7.5047281E+001  7.4946273E+001  7.4831141E+001  7.4703774E+001  7.4566023E+001  7.4419606E+001  7.4266083E+001  7.4106867E+001  7.3943258E+001  7.3776484E+001  7.3607737E+001  7.3438202E+001  7.3269076E+001  7.3101573E+001  7.2936923E+001  7.2776364E+001  7.2621122E+001  7.2472398E+001  7.2331341E+001  7.2199034E+001  7.2076470E+001  7.1964545E+001  7.1864050E+001  7.1775665E+001  7.1699963E+001  7.1637414E+001  7.1588393E+001  7.1553182E+001  7.1531978E+001  7.1524897E+001  7.5045509E+001  7.5050841E+001  7.5066544E+001  7.5091740E+001  7.5124953E+001  7.5164108E+001  7.5206548E+001  7.5249091E+001  7.5288141E+001  7.5319884E+001  7.5340549E+001  7.5346728E+001  7.5335686E+001  7.5305622E+001  7.5255810E+001  7.5186578E+001  7.5099135E+001  7.4995295E+001  7.4877159E+001  7.4746856E+001  7.4606367E+001  7.4457452E+001  7.4301650E+001  7.4140318E+001  7.3974695E+001  7.3805954E+001  7.3635244E+001  7.3463728E+001  7.3292591E+001  7.3123053E+001  7.2956361E+001  7.2793775E+001  7.2636556E+001  7.2485935E+001  7.2343095E+001  7.2209144E+001  7.2085098E+001  7.1971864E+001  7.1870236E+001  7.1780893E+001  7.1704403E+001  7.1641226E+001  7.1591728E+001  7.1556183E+001  7.1534781E+001  7.1527635E+001  7.5066365E+001  7.5072435E+001  7.5090355E+001  7.5119252E+001  7.5157635E+001  7.5203365E+001  7.5253622E+001  7.5304919E+001  7.5353191E+001  7.5393991E+001  7.5422815E+001  7.5435524E+001  7.5428796E+001  7.5400511E+001  7.5349978E+001  7.5277908E+001  7.5186141E+001  7.5077195E+001  7.4953782E+001  7.4818441E+001  7.4673354E+001  7.4520309E+001  7.4360773E+001  7.4195987E+001  7.4027070E+001  7.3855094E+001  7.3681140E+001  7.3506328E+001  7.3331833E+001  7.3158884E+001  7.2988756E+001  7.2822757E+001  7.2662200E+001  7.2508380E+001  7.2362535E+001  7.2225823E+001  7.2099291E+001  7.1983869E+001  7.1880356E+001  7.1789424E+001  7.1711628E+001  7.1647415E+001  7.1597131E+001  7.1561037E+001  7.1539310E+001  7.1532056E+001  7.5093525E+001  7.5100621E+001  7.5121636E+001  7.5155731E+001  7.5201443E+