<?xml version="1.0"?>
<VTKFile type="UnstructuredGrid" version="0.1" byte_order="LittleEndian">
<!-- Elmer version: 26.2 -->
<!-- Elmer revision: 03313b2 -->
<!-- Elmer compilation date: 2026-05-20 -->
<!-- Solver input file: novapcb_thermal.sif -->
<!-- File started at: 2026/05/23 04:01:57 -->
  <UnstructuredGrid>
    <Piece NumberOfPoints="6355" NumberOfCells="7760">
      <PointData>
        <DataArray type="Float64" Name="temperature" NumberOfComponents="1" format="ascii">
  7.8407471E+001  7.8402920E+001  7.8389260E+001  7.8366475E+001  7.8334595E+001  7.8293747E+001  7.8244204E+001  7.8186392E+001  7.8120851E+001  7.8048162E+001  7.7968850E+001  7.7883310E+001  7.7791753E+001  7.7694184E+001  7.7590423E+001  7.7480147E+001  7.7362965E+001  7.7238511E+001  7.7106543E+001  7.6967045E+001  7.6820299E+001  7.6666940E+001  7.6507965E+001  7.6344707E+001  7.6178783E+001  7.6012011E+001  7.5846321E+001  7.5683667E+001  7.5525949E+001  7.5374952E+001  7.5232301E+001  7.5099443E+001  7.4977635E+001  7.4867948E+001  7.4771275E+001  7.4688351E+001  7.4619764E+001  7.4565971E+001  7.4527314E+001  7.4504028E+001  7.4496251E+001  7.8422576E+001  7.8418032E+001  7.8404381E+001  7.8381585E+001  7.8349639E+001  7.8308642E+001  7.8258860E+001  7.8200741E+001  7.8134870E+001  7.8061876E+001  7.7982328E+001  7.7896649E+001  7.7805056E+001  7.7707550E+001  7.7603924E+001  7.7493819E+001  7.7376795E+001  7.7252431E+001  7.7120437E+001  7.6980754E+001  7.6833639E+001  7.6679720E+001  7.6520008E+001  7.6355867E+001  7.6188956E+001  7.6021141E+001  7.5854399E+001  7.5690725E+001  7.5532049E+001  7.5380178E+001  7.5236750E+001  7.5103215E+001  7.4980828E+001  7.4870655E+001  7.4773583E+001  7.4690336E+001  7.4621497E+001  7.4567516E+001  7.4528728E+001  7.4505364E+001  7.4497562E+001  7.8467885E+001  7.8463369E+001  7.8449775E+001  7.8426984E+001  7.8394873E+001  7.8353438E+001  7.8302916E+001  7.8243826E+001  7.8176906E+001  7.8102953E+001  7.8022672E+001  7.7936564E+001  7.7844874E+001  7.7747579E+001  7.7644399E+001  7.7534857E+001  7.7418361E+001  7.7294324E+001  7.7162294E+001  7.7022081E+001  7.6873864E+001  7.6718252E+001  7.6556297E+001  7.6389462E+001  7.6219541E+001  7.6048548E+001  7.5878607E+001  7.5711838E+001  7.5550267E+001  7.5395763E+001  7.5249999E+001  7.5114434E+001  7.4990317E+001  7.4878694E+001  7.4780429E+001  7.4696224E+001  7.4626635E+001  7.4572092E+001  7.4532916E+001  7.4509325E+001  7.4501447E+001  7.8543356E+001  7.8538917E+001  7.8525510E+001  7.8502874E+001  7.8470632E+001  7.8428516E+001  7.8376665E+001  7.8315761E+001  7.8246884E+001  7.8171178E+001  7.8089587E+001  7.8002737E+001  7.7910913E+001  7.7814050E+001  7.7711748E+001  7.7603319E+001  7.7487899E+001  7.7364594E+001  7.7232655E+001  7.7091654E+001  7.6941621E+001  7.6783131E+001  7.6617322E+001  7.6445839E+001  7.6270723E+001  7.6094264E+001  7.5918846E+001  7.5746809E+001  7.5580341E+001  7.5421413E+001  7.5271745E+001  7.5132807E+001  7.5005825E+001  7.4891811E+001  7.4791587E+001  7.4705809E+001  7.4634992E+001  7.4579534E+001  7.4539723E+001  7.4515760E+001  7.4507759E+001  7.8648884E+001  7.8644585E+001  7.8631619E+001  7.8609580E+001  7.8577593E+001  7.8534703E+001  7.8480719E+001  7.8416729E+001  7.8344601E+001  7.8266120E+001  7.8182533E+001  7.8094584E+001  7.8002621E+001  7.7906540E+001  7.7805761E+001  7.7699283E+001  7.7585809E+001  7.7463953E+001  7.7332487E+001  7.7190592E+001  7.7038060E+001  7.6875418E+001  7.6703947E+001  7.6525594E+001  7.6342808E+001  7.6158319E+001  7.5974918E+001  7.5795274E+001  7.5621805E+001  7.5456612E+001  7.5301467E+001  7.5157831E+001  7.5026888E+001  7.4909587E+001  7.4806679E+001  7.4718755E+001  7.4646269E+001  7.4589566E+001  7.4548895E+001  7.4524428E+001  7.4516261E+001  7.8784273E+001  7.8780166E+001  7.8767846E+001  7.8747336E+001  7.8717043E+001  7.8673805E+001  7.8616304E+001  7.8546800E+001  7.8469483E+001  7.8387072E+001  7.8300665E+001  7.8211177E+001  7.8119100E+001  7.8024322E+001  7.7926041E+001  7.7822802E+001  7.7712663E+001  7.7593482E+001  7.7463285E+001  7.7320642E+001  7.7164977E+001  7.6996750E+001  7.6817479E+001  7.6629598E+001  7.6436198E+001  7.6240684E+001  7.6046451E+001  7.5856628E+001  7.5673924E+001  7.5500579E+001  7.5338395E+001  7.5188784E+001  7.5052846E+001  7.4931429E+001  7.4825182E+001  7.4734598E+001  7.4660051E+001  7.4601815E+001  7.4560088E+001  7.4535001E+001  7.4526630E+001  7.8949271E+001  7.8945361E+001  7.8933678E+001  7.8914612E+001  7.8890854E+001  7.8851946E+001  7.8785278E+001  7.8704318E+001  7.8620656E+001  7.8533067E+001  7.8442769E+001  7.8351118E+001  7.8258944E+001  7.8166210E+001  7.8071863E+001  7.7973830E+001  7.7869219E+001  7.7754736E+001  7.7627251E+001  7.7484392E+001  7.7325026E+001  7.7149524E+001  7.6959787E+001  7.6759027E+001  7.6551342E+001  7.6341171E+001  7.6132786E+001  7.5929922E+001  7.5735615E+001  7.5552214E+001  7.5381478E+001  7.5224704E+001  7.5082841E+001  7.4956582E+001  7.4846432E+001  7.4752758E+001  7.4675825E+001  7.4615820E+001  7.4572875E+001  7.4547077E+001  7.4538472E+001  7.9143604E+001  7.9139902E+001  7.9128712E+001  7.9110031E+001  7.9085919E+001  7.9045185E+001  7.8974697E+001  7.8887983E+001  7.8797401E+001  7.8702965E+001  7.8607166E+001  7.8512359E+001  7.8420000E+001  7.8330290E+001  7.8241942E+001  7.8152080E+001  7.8056423E+001  7.7949900E+001  7.7827574E+001  7.7685621E+001  7.7522072E+001  7.7337185E+001  7.7133475E+001  7.6915391E+001  7.6688635E+001  7.6459252E+001  7.6232775E+001  7.6013692E+001  7.5805333E+001  7.5610025E+001  7.5429352E+001  7.5264378E+001  7.5115813E+001  7.4984131E+001  7.4869642E+001  7.4772551E+001  7.4692991E+001  7.4631046E+001  7.4586769E+001  7.4560192E+001  7.4551331E+001  7.9366909E+001  7.9363562E+001  7.9353113E+001  7.9334415E+001  7.9303908E+001  7.9255886E+001  7.9186944E+001  7.9099278E+001  7.8999762E+001  7.8895421E+001  7.8791503E+001  7.8691930E+001  7.8599031E+001  7.8513504E+001  7.8434012E+001  7.8356745E+001  7.8275403E+001  7.8182067E+001  7.8068889E+001  7.7929824E+001  7.7761719E+001  7.7564696E+001  7.7342176E+001  7.7100555E+001  7.6848181E+001  7.6593696E+001  7.6344451E+001  7.6105739E+001  7.5880939E+001  7.5672070E+001  7.5480315E+001  7.5306344E+001  7.5150521E+001  7.5013021E+001  7.4893915E+001  7.4793210E+001  7.4710884E+001  7.4646903E+001  7.4601232E+001  7.4573842E+001  7.4564714E+001  7.9618440E+001  7.9615902E+001  7.9607412E+001  7.9590448E+001  7.9561229E+001  7.9513567E+001  7.9440968E+001  7.9343154E+001  7.9228260E+001  7.9108334E+001  7.8992436E+001  7.8885637E+001  7.8791302E+001  7.8711018E+001  7.8644043E+001  7.8585903E+001  7.8527430E+001  7.8455780E+001  7.8358053E+001  7.8224965E+001  7.8052067E+001  7.7839318E+001  7.7591105E+001  7.7316726E+001  7.7029237E+001  7.6741863E+001  7.6464501E+001  7.6202856E+001  7.5959592E+001  7.5735926E+001  7.5532337E+001  7.5348916E+001  7.5185564E+001  7.5042091E+001  7.4918279E+001  7.4813913E+001  7.4728799E+001  7.4662772E+001  7.4615702E+001  7.4587498E+001  7.4578103E+001  7.9896424E+001  7.9895664E+001  7.9891751E+001  7.9880491E+001  7.9857292E+001  7.9819815E+001  7.9748411E+001  7.9626460E+001  7.9480681E+001  7.9338225E+001  7.9205326E+001  7.9087783E+001  7.8990214E+001  7.8915524E+001  7.8864568E+001  7.8834992E+001  7.8813860E+001  7.8778427E+001  7.8705729E+001  7.8582178E+001  7.8404409E+001  7.8172193E+001  7.7888458E+001  7.7566406E+001  7.7228729E+001  7.6898095E+001  7.6587693E+001  7.6300656E+001  7.6037725E+001  7.5798722E+001  7.5583110E+001  7.5390235E+001  7.5219439E+001  7.5070114E+001  7.4941726E+001  7.4833818E+001  7.4746017E+001  7.4678024E+001  7.4629615E+001  7.4600632E+001  7.4590981E+001  8.0196917E+001  8.0199796E+001  8.0205365E+001  8.0205626E+001  8.0191490E+001  8.0162362E+001  8.0086943E+001  7.9934696E+001  7.9751870E+001  7.9580291E+001  7.9424068E+001  7.9290990E+001  7.9187175E+001  7.9116951E+001  7.9083445E+001  7.9089114E+001  7.9136040E+001  7.9167753E+001  7.9127391E+001  7.9015824E+001  7.8833284E+001  7.8579343E+001  7.8252913E+001  7.7852293E+001  7.7433562E+001  7.7052533E+001  7.6706702E+001  7.6393664E+001  7.6111189E+001  7.5857273E+001  7.5630164E+001  7.5428364E+001  7.5250612E+001  7.5095862E+001  7.4963255E+001  7.4852099E+001  7.4761842E+001  7.4692058E+001  7.4642429E+001  7.4612737E+001  7.4602854E+001  8.0511838E+001  8.0521767E+001  8.0546028E+001  8.0569215E+001  8.0570818E+001  8.0533791E+001  8.0431977E+001  8.0253658E+001  8.0038680E+001  7.9828749E+001  7.9640748E+001  7.9486078E+001  7.9371872E+001  7.9303111E+001  7.9284684E+001  7.9323598E+001  7.9436895E+001  7.9534424E+001  7.9525527E+001  7.9425627E+001  7.9238612E+001  7.8963849E+001  7.8596165E+001  7.8118830E+001  7.7621156E+001  7.7191937E+001  7.6812837E+001  7.6475809E+001  7.6175588E+001  7.5908319E+001  7.5671036E+001  7.5461414E+001  7.5277612E+001  7.5118171E+001  7.4981934E+001  7.4867992E+001  7.4775634E+001  7.4704319E+001  7.4653650E+001  7.4623355E+001  7.4613274E+001  8.0825830E+001  8.0848465E+001  8.0908030E+001  8.0978179E+001  8.1016511E+001  8.0977781E+001  8.0837913E+001  8.0611004E+001  8.0340981E+001  8.0075341E+001  7.9844615E+001  7.9662000E+001  7.9532943E+001  7.9461268E+001  7.9451966E+001  7.9513488E+001  7.9658990E+001  7.9788630E+001  7.9802038E+001  7.9710661E+001  7.9519664E+001  7.9228216E+001  7.8829466E+001  7.8310189E+001  7.7768831E+001  7.7303117E+001  7.6897562E+001  7.6541235E+001  7.6226765E+001  7.5948837E+001  7.5703484E+001  7.5487691E+001  7.5299137E+001  7.5136024E+001  7.4996952E+001  7.4880837E+001  7.4786843E+001  7.4714337E+001  7.4662859E+001  7.4632093E+001  7.4621858E+001  8.1113381E+001  8.1154900E+001  8.1274868E+001  8.1439947E+001  8.1569424E+001  8.1562555E+001  8.1368880E+001  8.1032939E+001  8.0651649E+001  8.0303716E+001  8.0020781E+001  7.9806124E+001  7.9659026E+001  7.9579969E+001  7.9572355E+001  7.9643130E+001  7.9802633E+001  7.9946669E+001  7.9970581E+001  7.9883256E+001  7.9688953E+001  7.9386680E+001  7.8970135E+001  7.8428247E+001  7.7863220E+001  7.7376403E+001  7.6954067E+001  7.6585156E+001  7.6261317E+001  7.5976367E+001  7.5725697E+001  7.5505839E+001  7.5314153E+001  7.5148617E+001  7.5007672E+001  7.4890120E+001  7.4795040E+001  7.4721744E+001  7.4669727E+001  7.4638649E+001  7.4628311E+001  8.1339638E+001  8.1402193E+001  8.1596483E+001  8.1940899E+001  8.2306069E+001  8.2405033E+001  8.2090568E+001  8.1504386E+001  8.0928123E+001  8.0485463E+001  8.0150537E+001  7.9905485E+001  7.9740126E+001  7.9650483E+001  7.9637647E+001  7.9707053E+001  7.9867580E+001  8.0013459E+001  8.0038599E+001  7.9950897E+001  7.9754124E+001  7.9447167E+001  7.9023966E+001  7.8474133E+001  7.7900907E+001  7.7406634E+001  7.6978153E+001  7.6604470E+001  7.6277004E+001  7.5989285E+001  7.5736484E+001  7.5514967E+001  7.5321982E+001  7.5155425E+001  7.5013678E+001  7.4895501E+001  7.4799944E+001  7.4726296E+001  7.4674038E+001  7.4642820E+001  7.4632436E+001  8.1468692E+001  8.1545470E+001  8.1794437E+001  8.2290304E+001  8.3328629E+001  8.3987397E+001  8.3103719E+001  8.1834790E+001  8.1096412E+001  8.0585291E+001  8.0215446E+001  7.9949340E+001  7.9769252E+001  7.9667705E+001  7.9643998E+001  7.9702799E+001  7.9853104E+001  7.9989886E+001  8.0007952E+001  7.9915829E+001  7.9717531E+001  7.9411888E+001  7.8992475E+001  7.8448126E+001  7.7880973E+001  7.7392312E+001  7.6968371E+001  7.6598061E+001  7.6273002E+001  7.5986988E+001  7.5735394E+001  7.5514735E+001  7.5322360E+001  7.5156238E+001  7.5014800E+001  7.4896840E+001  7.4801435E+001  7.4727890E+001  7.4675697E+001  7.4644515E+001  7.4634143E+001  8.1477352E+001  8.1553817E+001  8.1801865E+001  8.2296288E+001  8.3332796E+001  8.3989575E+001  8.3103890E+001  8.1832937E+001  8.1092294E+001  8.0578257E+001  8.0204327E+001  7.9932381E+001  7.9744017E+001  7.9630919E+001  7.9591456E+001  7.9630245E+001  7.9758113E+001  7.9873743E+001  7.9875793E+001  7.9775053E+001  7.9576228E+001  7.9278162E+001  7.8873764E+001  7.8349630E+001  7.7804072E+001  7.7334709E+001  7.6925977E+001  7.6566877E+001  7.6249988E+001  7.5969949E+001  7.5722761E+001  7.5505378E+001  7.5315457E+001  7.5151178E+001  7.5011126E+001  7.4894202E+001  7.4799561E+001  7.4726560E+001  7.4674733E+001  7.4643760E+001  7.4633456E+001  8.1366262E+001  8.1427860E+001  8.1619325E+001  8.1959253E+001  8.2318737E+001  8.2411523E+001  8.2091013E+001  8.1498996E+001  8.0916388E+001  8.0465517E+001  8.0118897E+001  7.9856969E+001  7.9667610E+001  7.9544345E+001  7.9485137E+001  7.9492686E+001  7.9581276E+001  7.9658940E+001  7.9633788E+001  7.9520389E+001  7.9322024E+001  7.9037618E+001  7.8661675E+001  7.8177216E+001  7.7673366E+001  7.7238773E+001  7.6854983E+001  7.6513858E+001  7.6210057E+001  7.5939664E+001  7.5699663E+001  7.5487685E+001  7.5301855E+001  7.5140685E+001  7.5002994E+001  7.4887851E+001  7.4794533E+001  7.4722484E+001  7.4671297E+001  7.4640693E+001  7.4630509E+001  8.1159921E+001  8.1199812E+001  8.1314908E+001  8.1472007E+001  8.1591102E+001  8.1573011E+001  8.1369040E+001  8.1024278E+001  8.0634104E+001  8.0274348E+001  7.9973718E+001  7.9732936E+001  7.9548506E+001  7.9417014E+001  7.9336063E+001  7.9304285E+001  7.9321124E+001  7.9328269E+001  7.9267560E+001  7.9138930E+001  7.8941934E+001  7.8675635E+001  7.8338565E+001  7.7928732E+001  7.7501989E+001  7.7113968E+001  7.6762023E+001  7.6443636E+001  7.6156479E+001  7.5898473E+001  7.5667801E+001  7.5462912E+001  7.5282499E+001  7.5125479E+001  7.4990962E+001  7.4878230E+001  7.4786711E+001  7.4715961E+001  7.4665651E+001  7.4635554E+001  7.4625537E+001  8.0895570E+001  8.0915916E+001  8.0968521E+001  8.1026808E+001  8.1048349E+001  8.0990743E+001  8.0835318E+001  8.0598551E+001  8.0320762E+001  8.0042694E+001  7.9790396E+001  7.9574914E+001  7.9398827E+001  7.9261367E+001  7.9159913E+001  7.9089299E+001  7.9034435E+001  7.8970960E+001  7.8874702E+001  7.8731171E+001  7.8536316E+001  7.8289388E+001  7.7992910E+001  7.7659771E+001  7.7312413E+001  7.6973305E+001  7.6655474E+001  7.6361924E+001  7.6093283E+001  7.5849284E+001  7.5629316E+001  7.5432660E+001  7.5258605E+001  7.5106499E+001  7.4975768E+001  7.4865928E+001  7.4776578E+001  7.4707401E+001  7.4658156E+001  7.4628675E+001  7.4618860E+001  8.0609345E+001  8.0616416E+001  8.0631898E+001  8.0639662E+001  8.0617519E+001  8.0545598E+001  8.0415583E+001  8.0234925E+001  8.0022942E+001  7.9802062E+001  7.9590322E+001  7.9398658E+001  7.9231932E+001  7.9090877E+001  7.8973100E+001  7.8872406E+001  7.8778101E+001  7.8676085E+001  7.8552450E+001  7.8397112E+001  7.8204995E+001  7.7975561E+001  7.7712800E+001  7.7425695E+001  7.7127046E+001  7.6829868E+001  7.6543887E+001  7.6274665E+001  7.6024748E+001  7.5795253E+001  7.5586573E+001  7.5398730E+001  7.5231563E+001  7.5084832E+001  7.4958275E+001  7.4851643E+001  7.4764712E+001  7.4697296E+001  7.4649246E+001  7.4620458E+001  7.4610870E+001  8.0327861E+001  8.0327489E+001  8.0323072E+001  8.0305707E+001  8.0263878E+001  8.0187851E+001  8.0073839E+001  7.9925830E+001  7.9754124E+001  7.9571632E+001  7.9390138E+001  7.9218107E+001  7.9060208E+001  7.8917710E+001  7.8788862E+001  7.8669026E+001  7.8550975E+001  7.8425921E+001  7.8285248E+001  7.8122265E+001  7.7933281E+001  7.7717975E+001  7.7479403E+001  7.7223659E+001  7.6958842E+001  7.6693385E+001  7.6434465E+001  7.6187226E+001  7.5954923E+001  7.5739470E+001  7.5541958E+001  7.5362980E+001  7.5202833E+001  7.5061638E+001  7.4939418E+001  7.4836140E+001  7.4751752E+001  7.4686193E+001  7.4639408E+001  7.4611355E+001  7.4602007E+001  8.0067273E+001  8.0063063E+001  8.0048654E+001  8.0019350E+001  7.9969261E+001  7.9893632E+001  7.9790887E+001  7.9663538E+001  7.9517594E+001  7.9360860E+001  7.9200990E+001  7.9044035E+001  7.8893743E+001  7.8751419E+001  7.8616047E+001  7.8484534E+001  7.8352152E+001  7.8213300E+001  7.8062515E+001  7.7895490E+001  7.7709824E+001  7.7505404E+001  7.7284423E+001  7.7051056E+001  7.6810771E+001  7.6569413E+001  7.6332342E+001  7.6103900E+001  7.5887288E+001  7.5684725E+001  7.5497700E+001  7.5327195E+001  7.5173852E+001  7.5038082E+001  7.4920146E+001  7.4820206E+001  7.4738361E+001  7.4674667E+001  7.4629156E+001  7.4601845E+001  7.4592740E+001  7.9836133E+001  7.9830079E+001  7.9811001E+001  7.9776509E+001  7.9723688E+001  7.9650336E+001  7.9556011E+001  7.9442524E+001  7.9313674E+001  7.9174417E+001  7.9029803E+001  7.8884060E+001  7.8740013E+001  7.8598836E+001  7.8460059E+001  7.8321760E+001  7.8180931E+001  7.8034022E+001  7.7877582E+001  7.7708908E+001  7.7526543E+001  7.7330560E+001  7.7122592E+001  7.6905610E+001  7.6683498E+001  7.6460511E+001  7.6240753E+001  7.6027815E+001  7.5824609E+001  7.5633372E+001  7.5455765E+001  7.5293002E+001  7.5145960E+001  7.5015269E+001  7.4901379E+001  7.4804613E+001  7.4725198E+001  7.4663294E+001  7.4619008E+001  7.4592411E+001  7.4583541E+001  7.9638589E+001  7.9631734E+001  7.9610720E+001  7.9574395E+001  7.9521417E+001  7.9450910E+001  7.9363018E+001  7.9259173E+001  7.9141965E+001  7.9014704E+001  7.8880819E+001  7.8743287E+001  7.8604214E+001  7.8464612E+001  7.8324369E+001  7.8182374E+001  7.8036781E+001  7.7885386E+001  7.7726058E+001  7.7557162E+001  7.7377898E+001  7.7188499E+001  7.6990262E+001  7.6785420E+001  7.6576871E+001  7.6367852E+001  7.6161603E+001  7.5961112E+001  7.5768965E+001  7.5587293E+001  7.5417798E+001  7.5261809E+001  7.5120350E+001  7.4994205E+001  7.4883966E+001  7.4790081E+001  7.4712884E+001  7.4652619E+001  7.4609459E+001  7.4583519E+001  7.4574866E+001  7.9476445E+001  7.9469305E+001  7.9447686E+001  7.9411092E+001  7.9359007E+001  7.9291244E+001  7.9208241E+001  7.9111198E+001  7.9002011E+001  7.8883015E+001  7.8756639E+001  7.8625039E+001  7.8489814E+001  7.8351842E+001  7.8211232E+001  7.8067411E+001  7.7919304E+001  7.7765593E+001  7.7605013E+001  7.7436640E+001  7.7260121E+001  7.7075818E+001  7.6884839E+001  7.6688961E+001  7.6490466E+001  7.6291929E+001  7.6095996E+001  7.5905205E+001  7.5721852E+001  7.5547931E+001  7.5385116E+001  7.5234782E+001  7.5098037E+001  7.4975763E+001  7.4868657E+001  7.4777259E+001  7.4701984E+001  7.4643144E+001  7.4600965E+001  7.4575599E+001  7.4567134E+001  7.9350338E+001  7.9343148E+001  7.9321508E+001  7.9285265E+001  7.9234334E+001  7.9168879E+001  7.9089475E+001  7.8997174E+001  7.8893457E+001  7.8780082E+001  7.8658863E+001  7.8531439E+001  7.8399075E+001  7.8262548E+001  7.8122105E+001  7.7977517E+001  7.7828207E+001  7.7673432E+001  7.7512488E+001  7.7344915E+001  7.7170658E+001  7.6990178E+001  7.6804478E+001  7.6615059E+001  7.6423817E+001  7.6232901E+001  7.6044561E+001  7.5861009E+001  7.5684318E+001  7.5516351E+001  7.5358734E+001  7.5212848E+001  7.5079844E+001  7.4960668E+001  7.4856082E+001  7.4766694E+001  7.4692979E+001  7.4635300E+001  7.4593921E+001  7.4569023E+001  7.4560713E+001  7.9260374E+001  7.9253219E+001  7.9231750E+001  7.9195990E+001  7.9146069E+001  7.9082326E+001  7.9005393E+001  7.8916225E+001  7.8816063E+001  7.8706327E+001  7.8588469E+001  7.8463815E+001  7.8333427E+001  7.8198015E+001  7.8057907E+001  7.7913085E+001  7.7763280E+001  7.7608101E+001  7.7447192E+001  7.7280382E+001  7.7107808E+001  7.6929998E+001  7.6747899E+001  7.6562851E+001  7.6376517E+001  7.6190783E+001  7.6007645E+001  7.5829102E+001  7.5657068E+001  7.5493305E+001  7.5339392E+001  7.5196702E+001  7.5066406E+001  7.4949483E+001  7.4846740E+001  7.4758828E+001  7.4686262E+001  7.4629438E+001  7.4588650E+001  7.4564099E+001  7.4555903E+001  7.9206468E+001  7.9199357E+001  7.9178052E+001  7.9142657E+001  7.9093402E+001  7.9030703E+001  7.8955214E+001  7.8867835E+001  7.8769680E+001  7.8661991E+001  7.8546032E+001  7.8422962E+001  7.8293734E+001  7.8159021E+001  7.8019193E+001  7.7874347E+001  7.7724378E+001  7.7569089E+001  7.7408311E+001  7.7242032E+001  7.7070495E+001  7.6894266E+001  7.6714267E+001  7.6531752E+001  7.6348262E+001  7.6165538E+001  7.5985437E+001  7.5809835E+001  7.5640553E+001  7.5479291E+001  7.5327594E+001  7.5186826E+001  7.5058166E+001  7.4942612E+001  7.4840991E+001  7.4753979E+001  7.4682115E+001  7.4625815E+001  7.4585390E+001  7.4561052E+001  7.4552926E+001  7.9188513E+001  7.9181420E+001  7.9160179E+001  7.9124917E+001  7.9075892E+001  7.9013544E+001  7.8938530E+001  7.8851734E+001  7.8754227E+001  7.8647199E+001  7.8531855E+001  7.8409301E+001  7.8280455E+001  7.8145980E+001  7.8006258E+001  7.7861422E+001  7.7711420E+001  7.7556115E+001  7.7395399E+001  7.7229308E+001  7.7058121E+001  7.6882416E+001  7.6703107E+001  7.6521423E+001  7.6338864E+001  7.6157128E+001  7.5978026E+001  7.5803394E+001  7.5635021E+001  7.5474589E+001  7.5323630E+001  7.5183504E+001  7.5055391E+001  7.4940294E+001  7.4839050E+001  7.4752341E+001  7.4680713E+001  7.4624590E+001  7.4584287E+001  7.4560021E+001  7.4551918E+001  7.8542423E+001  7.8537851E+001  7.8524125E+001  7.8501232E+001  7.8469201E+001  7.8428159E+001  7.8378380E+001  7.8320293E+001  7.8254442E+001  7.8181407E+001  7.8101718E+001  7.8015772E+001  7.7923780E+001  7.7825747E+001  7.7721493E+001  7.7610694E+001  7.7492955E+001  7.7367909E+001  7.7235315E+001  7.7095154E+001  7.6947711E+001  7.6793624E+001  7.6633893E+001  7.6469860E+001  7.6303147E+001  7.6135583E+001  7.5969106E+001  7.5805679E+001  7.5647212E+001  7.5495497E+001  7.5352169E+001  7.5218680E+001  7.5096293E+001  7.4986085E+001  7.4888953E+001  7.4805635E+001  7.4736722E+001  7.4682674E+001  7.4643833E+001  7.4620436E+001  7.4612622E+001  7.8557600E+001  7.8553034E+001  7.8539318E+001  7.8516414E+001  7.8484316E+001  7.8443124E+001  7.8393106E+001  7.8334711E+001  7.8268527E+001  7.8195186E+001  7.8115261E+001  7.8029174E+001  7.7937146E+001  7.7839177E+001  7.7735059E+001  7.7624431E+001  7.7506850E+001  7.7381896E+001  7.7249275E+001  7.7108928E+001  7.6961114E+001  7.6806464E+001  7.6645993E+001  7.6481073E+001  7.6313369E+001  7.6144757E+001  7.5977223E+001  7.5812771E+001  7.5653341E+001  7.5500749E+001  7.5356639E+001  7.5222470E+001  7.5099502E+001  7.4988805E+001  7.4891271E+001  7.4807630E+001  7.4738463E+001  7.4684226E+001  7.4645253E+001  7.4621779E+001  7.4613939E+001  7.8603123E+001  7.8598586E+001  7.8584928E+001  7.8562028E+001  7.8529764E+001  7.8488133E+001  7.8437370E+001  7.8378000E+001  7.8310762E+001  7.8236458E+001  7.8155796E+001  7.8069279E+001  7.7977154E+001  7.7879396E+001  7.7775726E+001  7.7665663E+001  7.7548614E+001  7.7423988E+001  7.7291331E+001  7.7150452E+001  7.7001531E+001  7.6845179E+001  7.6682454E+001  7.6514827E+001  7.6344099E+001  7.6172294E+001  7.6001545E+001  7.5833984E+001  7.5671645E+001  7.5516408E+001  7.5369951E+001  7.5233743E+001  7.5109035E+001  7.4996882E+001  7.4898150E+001  7.4813545E+001  7.4743625E+001  7.4688824E+001  7.4649461E+001  7.4625758E+001  7.4617843E+001  7.8678953E+001  7.8674492E+001  7.8661022E+001  7.8638278E+001  7.8605882E+001  7.8563566E+001  7.8511468E+001  7.8450276E+001  7.8381073E+001  7.8305007E+001  7.8223028E+001  7.8135766E+001  7.8043505E+001  7.7946183E+001  7.7843395E+001  7.7734451E+001  7.7618483E+001  7.7494591E+001  7.7362026E+001  7.7220355E+001  7.7069609E+001  7.6910366E+001  7.6743769E+001  7.6571472E+001  7.6395524E+001  7.6218227E+001  7.6041976E+001  7.5869121E+001  7.5701863E+001  7.5542179E+001  7.5391801E+001  7.5252202E+001  7.5124617E+001  7.5010062E+001  7.4909361E+001  7.4823176E+001  7.4752023E+001  7.4696301E+001  7.4656301E+001  7.4632224E+001  7.4624185E+001  7.8784982E+001  7.8780663E+001  7.8767634E+001  7.8745488E+001  7.8713348E+001  7.8670253E+001  7.8616014E+001  7.8551721E+001  7.8479252E+001  7.8400400E+001  7.8316416E+001  7.8228050E+001  7.8135650E+001  7.8039112E+001  7.7937855E+001  7.7830870E+001  7.7716857E+001  7.7594422E+001  7.7462331E+001  7.7319762E+001  7.7166506E+001  7.7003091E+001  7.6830805E+001  7.6651606E+001  7.6467952E+001  7.6282586E+001  7.6098314E+001  7.5917816E+001  7.5743523E+001  7.5577545E+001  7.5421664E+001  7.5277345E+001  7.5145780E+001  7.5027922E+001  7.4924525E+001  7.4836183E+001  7.4763353E+001  7.4706380E+001  7.4665517E+001  7.4640933E+001  7.4632727E+001  7.8921014E+001  7.8916887E+001  7.8904507E+001  7.8883895E+001  7.8853451E+001  7.8810004E+001  7.8752234E+001  7.8682406E+001  7.8604726E+001  7.8521926E+001  7.8435109E+001  7.8345196E+001  7.8252682E+001  7.8157454E+001  7.8058705E+001  7.7954975E+001  7.7844313E+001  7.7724566E+001  7.7593750E+001  7.7450428E+001  7.7294024E+001  7.7124999E+001  7.6944876E+001  7.6756103E+001  7.6561784E+001  7.6365341E+001  7.6170187E+001  7.5979462E+001  7.5795889E+001  7.5621722E+001  7.5458767E+001  7.5308445E+001  7.5171862E+001  7.5049868E+001  7.4943116E+001  7.4852102E+001  7.4777200E+001  7.4718688E+001  7.4676762E+001  7.4651556E+001  7.4643146E+001  7.9086795E+001  7.9082867E+001  7.9071126E+001  7.9051961E+001  7.9028059E+001  7.8988940E+001  7.8921981E+001  7.8840668E+001  7.8756615E+001  7.8668613E+001  7.8577887E+001  7.8485802E+001  7.8393189E+001  7.8300015E+001  7.8205219E+001  7.8106719E+001  7.8001611E+001  7.7886583E+001  7.7758491E+001  7.7614954E+001  7.7454831E+001  7.7278495E+001  7.7087857E+001  7.6886145E+001  7.6677474E+001  7.6466306E+001  7.6256931E+001  7.6053103E+001  7.5857874E+001  7.5673602E+001  7.5502054E+001  7.5344536E+001  7.5201999E+001  7.5075140E+001  7.4964467E+001  7.4870348E+001  7.4793049E+001  7.4732759E+001  7.4689611E+001  7.4663689E+001  7.4655044E+001  7.9282051E+001  7.9278331E+001  7.9267085E+001  7.9248307E+001  7.9224048E+001  7.9183094E+001  7.9112297E+001  7.9025203E+001  7.8934198E+001  7.8839317E+001  7.8743064E+001  7.8647807E+001  7.8555010E+001  7.8464873E+001  7.8376104E+001  7.8285813E+001  7.8189700E+001  7.8082668E+001  7.7959759E+001  7.7817131E+001  7.7652805E+001  7.7467040E+001  7.7262365E+001  7.7043247E+001  7.6815416E+001  7.6584945E+001  7.6357394E+001  7.6137271E+001  7.5927922E+001  7.5731687E+001  7.5550156E+001  7.5384398E+001  7.5235128E+001  7.5102820E+001  7.4987787E+001  7.4890235E+001  7.4810297E+001  7.4748057E+001  7.4703570E+001  7.4676867E+001  7.4667965E+001  7.9506417E+001  7.9503053E+001  7.9492551E+001  7.9473757E+001  7.9443097E+001  7.9394841E+001  7.9325573E+001  7.9237498E+001  7.9137517E+001  7.9032685E+001  7.8928277E+001  7.8828231E+001  7.8734890E+001  7.8648956E+001  7.8569082E+001  7.8491443E+001  7.8409708E+001  7.8315923E+001  7.8202203E+001  7.8062475E+001  7.7893572E+001  7.7695615E+001  7.7472043E+001  7.7229279E+001  7.6975712E+001  7.6720023E+001  7.6469598E+001  7.6229754E+001  7.6003887E+001  7.5794027E+001  7.5601361E+001  7.5426564E+001  7.5270000E+001  7.5131848E+001  7.5012175E+001  7.4910992E+001  7.4828275E+001  7.4763990E+001  7.4718102E+001  7.4690582E+001  7.4681411E+001  7.9759141E+001  7.9756590E+001  7.9748057E+001  7.9731007E+001  7.9701638E+001  7.9653738E+001  7.9580790E+001  7.9482518E+001  7.9367091E+001  7.9246606E+001  7.9130162E+001  7.9022857E+001  7.8928073E+001  7.8847404E+001  7.8780103E+001  7.8721674E+001  7.8662906E+001  7.8590899E+001  7.8492696E+001  7.8358969E+001  7.8185250E+001  7.7971497E+001  7.7722116E+001  7.7446450E+001  7.7157612E+001  7.6868886E+001  7.6590215E+001  7.6327331E+001  7.6082913E+001  7.5858186E+001  7.5653630E+001  7.5469338E+001  7.5305210E+001  7.5161056E+001  7.5036656E+001  7.4931794E+001  7.4846275E+001  7.4779934E+001  7.4732641E+001  7.4704303E+001  7.4694863E+001  8.0038442E+001  8.0037678E+001  8.0033743E+001  8.0022421E+001  7.9999094E+001  7.9961387E+001  7.9889605E+001  7.9767115E+001  7.9620698E+001  7.9477584E+001  7.9344061E+001  7.9225961E+001  7.9127927E+001  7.9052876E+001  7.9001662E+001  7.8971911E+001  7.8950629E+001  7.8914980E+001  7.8841903E+001  7.8717752E+001  7.8539138E+001  7.8305833E+001  7.8020783E+001  7.7697249E+001  7.7358017E+001  7.7025847E+001  7.6713987E+001  7.6425594E+001  7.6161417E+001  7.5921280E+001  7.5704644E+001  7.5510853E+001  7.5339246E+001  7.5189212E+001  7.5060213E+001  7.4951793E+001  7.4863575E+001  7.4795259E+001  7.4746620E+001  7.4717499E+001  7.4707802E+001  8.0340358E+001  8.0343248E+001  8.0348838E+001  8.0349088E+001  8.0334861E+001  8.0305507E+001  8.0229661E+001  8.0076765E+001  7.9893162E+001  7.9720793E+001  7.9563838E+001  7.9430131E+001  7.9325821E+001  7.9255253E+001  7.9221562E+001  7.9227191E+001  7.9274162E+001  7.9305846E+001  7.9265228E+001  7.9153108E+001  7.8969702E+001  7.8714576E+001  7.8386661E+001  7.7984316E+001  7.7563775E+001  7.7181002E+001  7.6833555E+001  7.6519042E+001  7.6235229E+001  7.5980108E+001  7.5751921E+001  7.5549163E+001  7.5370567E+001  7.5215082E+001  7.5081845E+001  7.4970161E+001  7.4879475E+001  7.4809359E+001  7.4759495E+001  7.4729662E+001  7.4719732E+001  8.0656764E+001  8.0666736E+001  8.0691099E+001  8.0714376E+001  8.0715957E+001  8.0678697E+001  8.0576366E+001  8.0397252E+001  8.0181321E+001  7.9970423E+001  7.9781543E+001  7.9626143E+001  7.9511392E+001  7.9442291E+001  7.9423740E+001  7.9462740E+001  7.9576267E+001  7.9673951E+001  7.9664916E+001  7.9564509E+001  7.9376606E+001  7.9100569E+001  7.8731235E+001  7.8251941E+001  7.7752211E+001  7.7321052E+001  7.6940189E+001  7.6601574E+001  7.6299933E+001  7.6031397E+001  7.5792988E+001  7.5582370E+001  7.5397696E+001  7.5237497E+001  7.5100613E+001  7.4986129E+001  7.4893332E+001  7.4821679E+001  7.4770770E+001  7.4740330E+001  7.4730201E+001  8.0972232E+001  8.0994963E+001  8.1054777E+001  8.1125211E+001  8.1163675E+001  8.1124734E+001  8.0984214E+001  8.0756274E+001  8.0485026E+001  8.0218169E+001  7.9986371E+001  7.9802897E+001  7.9673225E+001  7.9601194E+001  7.9591803E+001  7.9653498E+001  7.9799350E+001  7.9929267E+001  7.9942620E+001  7.9850772E+001  7.9658867E+001  7.9366073E+001  7.8965547E+001  7.8444142E+001  7.7900553E+001  7.7432747E+001  7.7025311E+001  7.6667309E+001  7.6351353E+001  7.6072107E+001  7.5825590E+001  7.5608772E+001  7.5419323E+001  7.5255434E+001  7.5115702E+001  7.4999035E+001  7.4904595E+001  7.4831745E+001  7.4780022E+001  7.4749110E+001  7.4738826E+0