<?xml version="1.0"?>
<VTKFile type="UnstructuredGrid" version="0.1" byte_order="LittleEndian">
<!-- Elmer version: 26.2 -->
<!-- Elmer revision: 03313b2 -->
<!-- Elmer compilation date: 2026-05-20 -->
<!-- Solver input file: novapcb_thermal.sif -->
<!-- File started at: 2026/05/23 03:31:04 -->
  <UnstructuredGrid>
    <Piece NumberOfPoints="32305" NumberOfCells="39080">
      <PointData>
        <DataArray type="Float64" Name="temperature" NumberOfComponents="1" format="ascii">
  7.9859615E+001  7.9861712E+001  7.9867985E+001  7.9878388E+001  7.9892840E+001  7.9911231E+001  7.9933421E+001  7.9959237E+001  7.9988481E+001  8.0020927E+001  8.0056325E+001  8.0094402E+001  8.0134867E+001  8.0177413E+001  8.0221721E+001  8.0267455E+001  8.0314265E+001  8.0361763E+001  8.0409497E+001  8.0456877E+001  8.0503048E+001  8.0546675E+001  8.0585691E+001  8.0617220E+001  8.0637965E+001  8.0645152E+001  8.0637577E+001  8.0616075E+001  8.0583017E+001  8.0541241E+001  8.0493083E+001  8.0439990E+001  8.0382618E+001  8.0321138E+001  8.0255519E+001  8.0185746E+001  8.0111947E+001  8.0034450E+001  7.9953784E+001  7.9870616E+001  7.9785677E+001  7.9699683E+001  7.9613279E+001  7.9527009E+001  7.9441309E+001  7.9356509E+001  7.9272841E+001  7.9190440E+001  7.9109347E+001  7.9029503E+001  7.8950744E+001  7.8872816E+001  7.8795403E+001  7.8718183E+001  7.8640903E+001  7.8563461E+001  7.8485947E+001  7.8408658E+001  7.8332020E+001  7.8256460E+001  7.8182179E+001  7.8108860E+001  7.8035356E+001  7.7959579E+001  7.7878887E+001  7.7791042E+001  7.7695277E+001  7.7592797E+001  7.7486311E+001  7.7378987E+001  7.7273512E+001  7.7171709E+001  7.7074623E+001  7.6982781E+001  7.6896414E+001  7.6815594E+001  7.6740315E+001  7.6670533E+001  7.6606189E+001  7.6547221E+001  7.6493568E+001  7.6445176E+001  7.6401998E+001  7.6363990E+001  7.6331117E+001  7.6303349E+001  7.6280661E+001  7.6263035E+001  7.6250456E+001  7.6242912E+001  7.6240398E+001  7.9860288E+001  7.9862392E+001  7.9868690E+001  7.9879134E+001  7.9893643E+001  7.9912106E+001  7.9934383E+001  7.9960302E+001  7.9989662E+001  8.0022237E+001  8.0057775E+001  8.0096001E+001  8.0136624E+001  8.0179335E+001  8.0223813E+001  8.0269726E+001  8.0316728E+001  8.0364447E+001  8.0412461E+001  8.0460240E+001  8.0507032E+001  8.0551659E+001  8.0592171E+001  8.0625533E+001  8.0647908E+001  8.0655801E+001  8.0647700E+001  8.0624763E+001  8.0590099E+001  8.0547095E+001  8.0498250E+001  8.0444884E+001  8.0387470E+001  8.0326032E+001  8.0260438E+001  8.0190605E+001  8.0116630E+001  8.0038852E+001  7.9957830E+001  7.9874275E+001  7.9788960E+001  7.9702630E+001  7.9615945E+001  7.9529450E+001  7.9443579E+001  7.9358656E+001  7.9274911E+001  7.9192482E+001  7.9111411E+001  7.9031641E+001  7.8953008E+001  7.8875241E+001  7.8797995E+001  7.8720908E+001  7.8643684E+001  7.8566189E+001  7.8488511E+001  7.8410977E+001  7.8334085E+001  7.8258367E+001  7.8184176E+001  7.8111381E+001  7.8038968E+001  7.7964690E+001  7.7885356E+001  7.7797994E+001  7.7701513E+001  7.7597429E+001  7.7489168E+001  7.7380438E+001  7.7274080E+001  7.7171797E+001  7.7074474E+001  7.6982529E+001  7.6896128E+001  7.6815310E+001  7.6740050E+001  7.6670292E+001  7.6605974E+001  7.6547031E+001  7.6493400E+001  7.6445028E+001  7.6401866E+001  7.6363873E+001  7.6331011E+001  7.6303253E+001  7.6280574E+001  7.6262953E+001  7.6250377E+001  7.6242836E+001  7.6240323E+001  7.9862289E+001  7.9864419E+001  7.9870790E+001  7.9881356E+001  7.9896035E+001  7.9914717E+001  7.9937258E+001  7.9963484E+001  7.9993194E+001  8.0026156E+001  8.0062115E+001  8.0100792E+001  8.0141890E+001  8.0185095E+001  8.0230084E+001  8.0276528E+001  8.0324095E+001  8.0372451E+001  8.0421253E+001  8.0470128E+001  8.0518619E+001  8.0566040E+001  8.0611060E+001  8.0650586E+001  8.0678797E+001  8.0689362E+001  8.0679112E+001  8.0650911E+001  8.0610750E+001  8.0564038E+001  8.0513348E+001  8.0459355E+001  8.0401955E+001  8.0340749E+001  8.0275294E+001  8.0205307E+001  8.0130800E+001  8.0052139E+001  7.9969996E+001  7.9885235E+001  7.9798763E+001  7.9711415E+001  7.9623885E+001  7.9536722E+001  7.9450341E+001  7.9365052E+001  7.9281077E+001  7.9198557E+001  7.9117547E+001  7.9038003E+001  7.8959758E+001  7.8882503E+001  7.8805805E+001  7.8729166E+001  7.8652146E+001  7.8574500E+001  7.8496298E+001  7.8417958E+001  7.8340194E+001  7.8263857E+001  7.8189740E+001  7.8118301E+001  7.8049181E+001  7.7980072E+001  7.7905771E+001  7.7820427E+001  7.7721248E+001  7.7611404E+001  7.7497157E+001  7.7384189E+001  7.7275392E+001  7.7171839E+001  7.7073908E+001  7.6981710E+001  7.6895241E+001  7.6814445E+001  7.6739248E+001  7.6669569E+001  7.6605331E+001  7.6546462E+001  7.6492899E+001  7.6444587E+001  7.6401475E+001  7.6363524E+001  7.6330698E+001  7.6302968E+001  7.6280311E+001  7.6262708E+001  7.6250144E+001  7.6242610E+001  7.6240099E+001  7.9865571E+001  7.9867741E+001  7.9874236E+001  7.9885006E+001  7.9899971E+001  7.9919017E+001  7.9942000E+001  7.9968743E+001  7.9999038E+001  8.0032651E+001  8.0069318E+001  8.0108752E+001  8.0150646E+001  8.0194678E+001  8.0240518E+001  8.0287834E+001  8.0336309E+001  8.0385648E+001  8.0435607E+001  8.0486012E+001  8.0536805E+001  8.0588073E+001  8.0639978E+001  8.0691566E+001  8.0734842E+001  8.0751987E+001  8.0735974E+001  8.0693608E+001  8.0642450E+001  8.0590162E+001  8.0537230E+001  8.0482811E+001  8.0425894E+001  8.0365418E+001  8.0300426E+001  8.0230277E+001  8.0154841E+001  8.0074562E+001  7.9990366E+001  7.9903431E+001  7.9814931E+001  7.9725850E+001  7.9636922E+001  7.9548667E+001  7.9461457E+001  7.9375567E+001  7.9291203E+001  7.9208516E+001  7.9127588E+001  7.9048416E+001  7.8970852E+001  7.8894551E+001  7.8818926E+001  7.8743219E+001  7.8666677E+001  7.8588814E+001  7.8509630E+001  7.8429706E+001  7.8350129E+001  7.8272290E+001  7.8197661E+001  7.8127633E+001  7.8063386E+001  7.8004718E+001  7.7944187E+001  7.7864385E+001  7.7758582E+001  7.7633807E+001  7.7507801E+001  7.7388410E+001  7.7276372E+001  7.7171244E+001  7.7072612E+001  7.6980165E+001  7.6893674E+001  7.6812964E+001  7.6737898E+001  7.6668363E+001  7.6604264E+001  7.6545524E+001  7.6492074E+001  7.6443860E+001  7.6400832E+001  7.6362951E+001  7.6330183E+001  7.6302501E+001  7.6279881E+001  7.6262305E+001  7.6249761E+001  7.6242238E+001  7.6239731E+001  7.9870051E+001  7.9872279E+001  7.9878947E+001  7.9890005E+001  7.9905371E+001  7.9924931E+001  7.9948536E+001  7.9976007E+001  8.0007131E+001  8.0041664E+001  8.0079334E+001  8.0119842E+001  8.0162865E+001  8.0208066E+001  8.0255098E+001  8.0303620E+001  8.0353310E+001  8.0403899E+001  8.0455210E+001  8.0507232E+001  8.0560257E+001  8.0615136E+001  8.0673786E+001  8.0740734E+001  8.0811339E+001  8.0838481E+001  8.0813503E+001  8.0744951E+001  8.0679812E+001  8.0622530E+001  8.0568246E+001  8.0514412E+001  8.0459074E+001  8.0400364E+001  8.0336540E+001  8.0266376E+001  8.0189513E+001  8.0106588E+001  8.0019039E+001  7.9928672E+001  7.9837129E+001  7.9745586E+001  7.9654748E+001  7.9565030E+001  7.9476708E+001  7.9389997E+001  7.9305079E+001  7.9222116E+001  7.9141246E+001  7.9062550E+001  7.8985982E+001  7.8911218E+001  7.8837482E+001  7.8763549E+001  7.8688045E+001  7.8609985E+001  7.8529194E+001  7.8446506E+001  7.8363618E+001  7.8282737E+001  7.8206178E+001  7.8136308E+001  7.8076043E+001  7.8030556E+001  7.7995645E+001  7.7924492E+001  7.7808632E+001  7.7656723E+001  7.7515798E+001  7.7390331E+001  7.7275556E+001  7.7169247E+001  7.7070192E+001  7.6977697E+001  7.6891336E+001  7.6810832E+001  7.6735993E+001  7.6666681E+001  7.6602788E+001  7.6544231E+001  7.6490941E+001  7.6442863E+001  7.6399950E+001  7.6362166E+001  7.6329478E+001  7.6301859E+001  7.6279290E+001  7.6261753E+001  7.6249235E+001  7.6241728E+001  7.6239226E+001  7.9875615E+001  7.9877918E+001  7.9884809E+001  7.9896239E+001  7.9912124E+001  7.9932349E+001  7.9956762E+001  7.9985179E+001  8.0017380E+001  8.0053114E+001  8.0092095E+001  8.0134007E+001  8.0178509E+001  8.0225237E+001  8.0273819E+001  8.0323883E+001  8.0375083E+001  8.0427131E+001  8.0479854E+001  8.0533287E+001  8.0587854E+001  8.0644726E+001  8.0706727E+001  8.0780544E+001  8.0861215E+001  8.0892838E+001  8.0864515E+001  8.0787165E+001  8.0716711E+001  8.0658121E+001  8.0604646E+001  8.0553140E+001  8.0501305E+001  8.0446267E+001  8.0384977E+001  8.0315164E+001  8.0236185E+001  8.0148980E+001  8.0056038E+001  7.9960438E+001  7.9864708E+001  7.9770064E+001  7.9676928E+001  7.9585475E+001  7.9495821E+001  7.9408092E+001  7.9322438E+001  7.9239041E+001  7.9158113E+001  7.9079882E+001  7.9004535E+001  7.8932023E+001  7.8861530E+001  7.8790945E+001  7.8717632E+001  7.8639571E+001  7.8556305E+001  7.8468981E+001  7.8380380E+001  7.8294060E+001  7.8213385E+001  7.8141115E+001  7.8080810E+001  7.8039571E+001  7.8012703E+001  7.7944475E+001  7.7824059E+001  7.7662352E+001  7.7515155E+001  7.7387239E+001  7.7271643E+001  7.7165197E+001  7.7066325E+001  7.6974153E+001  7.6888164E+001  7.6808032E+001  7.6733541E+001  7.6664543E+001  7.6600925E+001  7.6542606E+001  7.6489521E+001  7.6441616E+001  7.6398849E+001  7.6361186E+001  7.6328597E+001  7.6301058E+001  7.6278552E+001  7.6261062E+001  7.6248577E+001  7.6241090E+001  7.6238594E+001  7.9882115E+001  7.9884509E+001  7.9891674E+001  7.9903561E+001  7.9920085E+001  7.9941129E+001  7.9966539E+001  7.9996126E+001  8.0029665E+001  8.0066891E+001  8.0107507E+001  8.0151176E+001  8.0197530E+001  8.0246173E+001  8.0296691E+001  8.0348665E+001  8.0401689E+001  8.0455408E+001  8.0509568E+001  8.0564100E+001  8.0619262E+001  8.0675913E+001  8.0736017E+001  8.0804184E+001  8.0875876E+001  8.0904092E+001  8.0880294E+001  8.0813169E+001  8.0749901E+001  8.0695272E+001  8.0645009E+001  8.0597549E+001  8.0551957E+001  8.0504734E+001  8.0448222E+001  8.0379158E+001  8.0297313E+001  8.0203306E+001  8.0100719E+001  7.9997361E+001  7.9896566E+001  7.9798518E+001  7.9702936E+001  7.9609624E+001  7.9518501E+001  7.9429589E+001  7.9343002E+001  7.9258940E+001  7.9177700E+001  7.9099693E+001  7.9025463E+001  7.8955655E+001  7.8890479E+001  7.8827021E+001  7.8757925E+001  7.8680094E+001  7.8593421E+001  7.8498676E+001  7.8399681E+001  7.8304658E+001  7.8217660E+001  7.8140144E+001  7.8074150E+001  7.8024357E+001  7.7986301E+001  7.7913015E+001  7.7795920E+001  7.7643545E+001  7.7502775E+001  7.7377922E+001  7.7264059E+001  7.7158824E+001  7.7060894E+001  7.6969499E+001  7.6884165E+001  7.6804592E+001  7.6730579E+001  7.6661986E+001  7.6598713E+001  7.6540686E+001  7.6487845E+001  7.6440147E+001  7.6397552E+001  7.6360031E+001  7.6327559E+001  7.6300115E+001  7.6277682E+001  7.6260248E+001  7.6247802E+001  7.6240337E+001  7.6237849E+001  7.9889369E+001  7.9891871E+001  7.9899362E+001  7.9911791E+001  7.9929075E+001  7.9951095E+001  7.9977696E+001  8.0008684E+001  8.0043829E+001  8.0082856E+001  8.0125449E+001  8.0171253E+001  8.0219866E+001  8.0270852E+001  8.0323744E+001  8.0378050E+001  8.0433280E+001  8.0488962E+001  8.0544683E+001  8.0600142E+001  8.0655206E+001  8.0709970E+001  8.0764696E+001  8.0818609E+001  8.0863941E+001  8.0883116E+001  8.0869338E+001  8.0829651E+001  8.0781941E+001  8.0734424E+001  8.0688602E+001  8.0645458E+001  8.0607388E+001  8.0573030E+001  8.0522395E+001  8.0453822E+001  8.0368927E+001  8.0266645E+001  8.0149138E+001  8.0036802E+001  7.9931241E+001  7.9830088E+001  7.9732237E+001  7.9637122E+001  7.9544485E+001  7.9454260E+001  7.9366525E+001  7.9281493E+001  7.9199524E+001  7.9121188E+001  7.9047377E+001  7.8979552E+001  7.8920462E+001  7.8868924E+001  7.8805003E+001  7.8727039E+001  7.8636645E+001  7.8532791E+001  7.8417756E+001  7.8312165E+001  7.8218014E+001  7.8133518E+001  7.8058251E+001  7.7991189E+001  7.7924491E+001  7.7840527E+001  7.7732374E+001  7.7606819E+001  7.7481294E+001  7.7363296E+001  7.7253228E+001  7.7150356E+001  7.7054049E+001  7.6963847E+001  7.6879434E+001  7.6800594E+001  7.6727175E+001  7.6659072E+001  7.6596204E+001  7.6538514E+001  7.6485954E+001  7.6438489E+001  7.6396088E+001  7.6358727E+001  7.6326386E+001  7.6299048E+001  7.6276698E+001  7.6259326E+001  7.6246923E+001  7.6239484E+001  7.6237004E+001  7.9897161E+001  7.9899789E+001  7.9907656E+001  7.9920713E+001  7.9938879E+001  7.9962033E+001  7.9990022E+001  8.0022649E+001  8.0059679E+001  8.0100829E+001  8.0145767E+001  8.0194113E+001  8.0245434E+001  8.0299245E+001  8.0355014E+001  8.0412166E+001  8.0470094E+001  8.0528178E+001  8.0585797E+001  8.0642351E+001  8.0697243E+001  8.0749784E+001  8.0798804E+001  8.0841515E+001  8.0872499E+001  8.0885824E+001  8.0878650E+001  8.0854105E+001  8.0818487E+001  8.0777760E+001  8.0735611E+001  8.0694895E+001  8.0659806E+001  8.0629402E+001  8.0580357E+001  8.0511023E+001  8.0423737E+001  8.0316915E+001  8.0192945E+001  8.0075874E+001  7.9967370E+001  7.9864062E+001  7.9764419E+001  7.9667711E+001  7.9573594E+001  7.9481956E+001  7.9392852E+001  7.9306488E+001  7.9223242E+001  7.9143740E+001  7.9069015E+001  7.9000934E+001  7.8943237E+001  7.8894671E+001  7.8831654E+001  7.8752323E+001  7.8658841E+001  7.8549513E+001  7.8426678E+001  7.8314389E+001  7.8214331E+001  7.8123032E+001  7.8038304E+001  7.7957035E+001  7.7873712E+001  7.7782343E+001  7.7679942E+001  7.7569327E+001  7.7456251E+001  7.7345809E+001  7.7240334E+001  7.7140439E+001  7.7046176E+001  7.6957450E+001  7.6874148E+001  7.6796168E+001  7.6723434E+001  7.6655882E+001  7.6593465E+001  7.6536145E+001  7.6483892E+001  7.6436681E+001  7.6394491E+001  7.6357304E+001  7.6325104E+001  7.6297880E+001  7.6275619E+001  7.6258315E+001  7.6245959E+001  7.6238548E+001  7.6236077E+001  7.9905242E+001  7.9908012E+001  7.9916306E+001  7.9930077E+001  7.9949244E+001  7.9973692E+001  8.0003267E+001  8.0037777E+001  8.0076980E+001  8.0120590E+001  8.0168262E+001  8.0219593E+001  8.0274116E+001  8.0331297E+001  8.0390532E+001  8.0451151E+001  8.0512417E+001  8.0573540E+001  8.0633673E+001  8.0691912E+001  8.0747251E+001  8.0798461E+001  8.0843819E+001  8.0880795E+001  8.0906227E+001  8.0917276E+001  8.0912866E+001  8.0894334E+001  8.0864852E+001  8.0828072E+001  8.0787300E+001  8.0745560E+001  8.0706610E+001  8.0669984E+001  8.0616283E+001  8.0544239E+001  8.0455725E+001  8.0349836E+001  8.0228826E+001  8.0113131E+001  8.0004361E+001  7.9900135E+001  7.9799313E+001  7.9701292E+001  7.9605772E+001  7.9512646E+001  7.9421957E+001  7.9333885E+001  7.9248768E+001  7.9167152E+001  7.9089915E+001  7.9018499E+001  7.8955638E+001  7.8900125E+001  7.8831988E+001  7.8749511E+001  7.8654218E+001  7.8544937E+001  7.8423713E+001  7.8310791E+001  7.8207516E+001  7.8111004E+001  7.8019047E+001  7.7929046E+001  7.7837901E+001  7.7742804E+001  7.7642585E+001  7.7538282E+001  7.7432509E+001  7.7328026E+001  7.7226810E+001  7.7129911E+001  7.7037794E+001  7.6950648E+001  7.6868539E+001  7.6791485E+001  7.6719480E+001  7.6652513E+001  7.6590572E+001  7.6533642E+001  7.6481711E+001  7.6434767E+001  7.6392797E+001  7.6355791E+001  7.6323740E+001  7.6296635E+001  7.6274469E+001  7.6257235E+001  7.6244929E+001  7.6237547E+001  7.6235086E+001  7.9913330E+001  7.9916258E+001  7.9925028E+001  7.9939594E+001  7.9959881E+001  7.9985779E+001  8.0017140E+001  8.0053774E+001  8.0095447E+001  8.0141867E+001  8.0192682E+001  8.0247474E+001  8.0305744E+001  8.0366909E+001  8.0430294E+001  8.0495128E+001  8.0560539E+001  8.0625558E+001  8.0689113E+001  8.0750023E+001  8.0806967E+001  8.0858425E+001  8.0902595E+001  8.0937406E+001  8.0960758E+001  8.0971031E+001  8.0967649E+001  8.0951353E+001  8.0923985E+001  8.0887973E+001  8.0845838E+001  8.0799904E+001  8.0751714E+001  8.0699395E+001  8.0636377E+001  8.0560126E+001  8.0470890E+001  8.0369584E+001  8.0259953E+001  8.0149873E+001  8.0042681E+001  7.9938519E+001  7.9837036E+001  7.9737954E+001  7.9641104E+001  7.9546427E+001  7.9453962E+001  7.9363847E+001  7.9276328E+001  7.9191778E+001  7.9110708E+001  7.9033735E+001  7.8961039E+001  7.8889663E+001  7.8812187E+001  7.8725412E+001  7.8629072E+001  7.8523684E+001  7.8412661E+001  7.8303560E+001  7.8199318E+001  7.8099471E+001  7.8002719E+001  7.7907425E+001  7.7811843E+001  7.7714572E+001  7.7615057E+001  7.7513814E+001  7.7412169E+001  7.7311722E+001  7.7213864E+001  7.7119570E+001  7.7029436E+001  7.6943805E+001  7.6862866E+001  7.6786728E+001  7.6715452E+001  7.6649073E+001  7.6587610E+001  7.6531072E+001  7.6479466E+001  7.6432790E+001  7.6391043E+001  7.6354221E+001  7.6322321E+001  7.6295339E+001  7.6273269E+001  7.6256108E+001  7.6243852E+001  7.6236500E+001  7.6234049E+001  7.9921110E+001  7.9924212E+001  7.9933503E+001  7.9948943E+001  7.9970463E+001  7.9997961E+001  8.0031300E+001  8.0070302E+001  8.0114738E+001  8.0164325E+001  8.0218712E+001  8.0277470E+001  8.0340078E+001  8.0405911E+001  8.0474229E+001  8.0544162E+001  8.0614702E+001  8.0684699E+001  8.0752862E+001  8.0817755E+001  8.0877803E+001  8.0931297E+001  8.0976428E+001  8.1011379E+001  8.1034528E+001  8.1044719E+001  8.1041528E+001  8.1025387E+001  8.0997514E+001  8.0959668E+001  8.0913808E+001  8.0861652E+001  8.0803969E+001  8.0739969E+001  8.0668034E+001  8.0586862E+001  8.0496440E+001  8.0398091E+001  8.0294504E+001  8.0188823E+001  8.0083554E+001  7.9979828E+001  7.9877946E+001  7.9777946E+001  7.9679805E+001  7.9583520E+001  7.9489126E+001  7.9396711E+001  7.9306413E+001  7.9218403E+001  7.9132827E+001  7.9049603E+001  7.8967877E+001  7.8885489E+001  7.8799725E+001  7.8708438E+001  7.8610972E+001  7.8508161E+001  7.8402298E+001  7.8296161E+001  7.8191845E+001  7.8089948E+001  7.7990069E+001  7.7891383E+001  7.7792982E+001  7.7694171E+001  7.7594716E+001  7.7494939E+001  7.7395617E+001  7.7297742E+001  7.7202283E+001  7.7110030E+001  7.7021556E+001  7.6937251E+001  7.6857370E+001  7.6782080E+001  7.6711488E+001  7.6645666E+001  7.6584660E+001  7.6528501E+001  7.6477209E+001  7.6430795E+001  7.6389267E+001  7.6352627E+001  7.6320877E+001  7.6294016E+001  7.6272042E+001  7.6254954E+001  7.6242749E+001  7.6235427E+001  7.6232987E+001  7.9928239E+001  7.9931528E+001  7.9941382E+001  7.9957768E+001  7.9980624E+001  8.0009864E+001  8.0045364E+001  8.0086963E+001  8.0134452E+001  8.0187563E+001  8.0245957E+001  8.0309207E+001  8.0376785E+001  8.0448037E+001  8.0522168E+001  8.0598218E+001  8.0675049E+001  8.0751332E+001  8.0825552E+001  8.0896016E+001  8.0960893E+001  8.1018273E+001  8.1066255E+001  8.1103081E+001  8.1127293E+001  8.1137882E+001  8.1134419E+001  8.1117118E+001  8.1086857E+001  8.1045083E+001  8.0993578E+001  8.0934037E+001  8.0867609E+001  8.0794694E+001  8.0715155E+001  8.0628857E+001  8.0536137E+001  8.0438038E+001  8.0336185E+001  8.0232411E+001  8.0128279E+001  8.0024811E+001  7.9922522E+001  7.9821621E+001  7.9722183E+001  7.9624239E+001  7.9527812E+001  7.9432938E+001  7.9339658E+001  7.9247986E+001  7.9157829E+001  7.9068835E+001  7.8980197E+001  7.8890646E+001  7.8798736E+001  7.8703352E+001  7.8604118E+001  7.8501553E+001  7.8396882E+001  7.8291600E+001  7.8186930E+001  7.8083510E+001  7.7981402E+001  7.7880319E+001  7.7779874E+001  7.7679781E+001  7.7580002E+001  7.7480796E+001  7.7382688E+001  7.7286349E+001  7.7192475E+001  7.7101687E+001  7.7014486E+001  7.6931252E+001  7.6852258E+001  7.6777699E+001  7.6707710E+001  7.6642389E+001  7.6581800E+001  7.6525991E+001  7.6474992E+001  7.6428826E+001  7.6387506E+001  7.6351040E+001  7.6319435E+001  7.6292692E+001  7.6270812E+001  7.6253795E+001  7.6241641E+001  7.6234349E+001  7.6231918E+001  7.9934345E+001  7.9937832E+001  7.9948286E+001  7.9965679E+001  7.9989963E+001  8.0021069E+001  8.0058895E+001  8.0103307E+001  8.0154121E+001  8.0211100E+001  8.0273931E+001  8.0342209E+001  8.0415415E+001  8.0492888E+001  8.0573799E+001  8.0657116E+001  8.0741581E+001  8.0825687E+001  8.0907679E+001  8.0985578E+001  8.1057240E+001  8.1120459E+001  8.1173117E+001  8.1213342E+001  8.1239671E+001  8.1251118E+001  8.1247172E+001  8.1227812E+001  8.1193632E+001  8.1145998E+001  8.1086947E+001  8.1018737E+001  8.0943271E+001  8.0861789E+001  8.0774963E+001  8.0683235E+001  8.0587145E+001  8.0487491E+001  8.0385316E+001  8.0281741E+001  8.0177761E+001  8.0074110E+001  7.9971235E+001  7.9869366E+001  7.9768594E+001  7.9668951E+001  7.9570436E+001  7.9473037E+001  7.9376723E+001  7.9281416E+001  7.9186930E+001  7.9092901E+001  7.8998740E+001  7.8903666E+001  7.8806877E+001  7.8707783E+001  7.8606208E+001  7.8502462E+001  7.8397247E+001  7.8291432E+001  7.8185801E+001  7.8080876E+001  7.7976885E+001  7.7873841E+001  7.7771672E+001  7.7670340E+001  7.7569938E+001  7.7470718E+001  7.7373084E+001  7.7277533E+001  7.7184591E+001  7.7094750E+001  7.7008436E+001  7.6925992E+001  7.6847683E+001  7.6773710E+001  7.6704220E+001  7.6639323E+001  7.6579096E+001  7.6523595E+001  7.6472861E+001  7.6426920E+001  7.6385792E+001  7.6349490E+001  7.6318021E+001  7.6291390E+001  7.6269600E+001  7.6252652E+001  7.6240547E+001  7.6233284E+001  7.6230863E+001  7.9939033E+001  7.9942728E+001  7.9953809E+001  7.9972258E+001  7.9998044E+001  8.0031119E+001  8.0071412E+001  8.0118822E+001  8.0173206E+001  8.0234370E+001  8.0302046E+001  8.0375874E+001  8.0455373E+001  8.0539903E+001  8.0628630E+001  8.0720482E+001  8.0814100E+001  8.0907806E+001  8.0999587E+001  8.1087115E+001  8.1167830E+001  8.1239084E+001  8.1298354E+001  8.1343486E+001  8.1372908E+001  8.1385700E+001  8.1381351E+001  8.1359426E+001  8.1319967E+001  8.1264218E+001  8.1195102E+001  8.1116182E+001  8.1030494E+001  8.0939905E+001  8.0845452E+001  8.0747799E+001  8.0647507E+001  8.0545172E+001  8.0441448E+001  8.0337002E+001  8.0232420E+001  8.0128149E+001  8.0024476E+001  7.9921544E+001  7.9819404E+001  7.9718047E+001  7.9617436E+001  7.9517516E+001  7.9418213E+001  7.9319407E+001  7.9220911E+001  7.9122432E+001  7.9023569E+001  7.8923854E+001  7.8822839E+001  7.8720222E+001  7.8615940E+001  7.8510205E+001  7.8403453E+001  7.8296237E+001  7.8189094E+001  7.8082452E+001  7.7976595E+001  7.7871689E+001  7.7767843E+001  7.7665177E+001  7.7563872E+001  7.7464195E+001  7.7366492E+001  7.7271165E+001  7.7178632E+001  7.7089295E+001  7.7003509E+001  7.6921577E+001  7.6843744E+001  7.6770199E+001  7.6701091E+001  7.6636531E+001  7.6576600E+001  7.6521359E+001  7.6470852E+001  7.6425110E+001  7.6384154E+001  7.6348001E+001  7.6316658E+001  7.6290133E+001  7.6268428E+001  7.6251546E+001  7.6239487E+001  7.6232251E+001  7.6229839E+001  7.9941889E+001  7.9945799E+001  7.9957525E+001  7.9977064E+001  8.0004404E+001  8.0039523E+001  8.0082388E+001  8.0132941E+001  8.0191095E+001  8.0256714E+001  8.0329600E+001  8.0409464E+001  8.0495894E+001  8.0588315E+001  8.0685935E+001  8.0787684E+001  8.0892145E+001  8.0997489E+001  8.1101426E+001  8.1201211E+001  8.1293717E+001  8.1375631E+001  8.1443763E+001  8.1495425E+001  8.1528814E+001  8.1543239E+001  8.1538870E+001  8.1515015E+001  8.1469122E+001  8.1402028E+001  8.1318428E+001  8.1225711E+001  8.1128147E+001  8.1027537E+001  8.0924860E+001  8.0820747E+001  8.0715645E+001  8.0609927E+001  8.0503936E+001  8.0397985E+001  8.0292328E+001  8.0187144E+001  8.0082522E+001  7.9978477E+001  7.9874966E+001  7.9771917E+001  7.9669244E+001  7.9566854E+001  7.9464648E+001  7.9362503E+001  7.9260266E+001  7.9157731E+001  7.9054653E+001  7.8950770E+001  7.8845853E+001  7.8739771E+001  7.8632532E+001  7.8524306E+001  7.8415396E+001  7.8306185E+001  7.8197073E+001  7.8088423E+001  7.7980536E+001  7.7873663E+001  7.7768020E+001  7.7663828E+001  7.7561333E+001  7.7460821E+001  7.7362616E+001  7.7267063E+001  7.7174514E+001  7.7085302E+001  7.6999727E+001  7.6918051E+001  7.6840489E+001  7.6767215E+001  7.6698368E+001  7.6634051E+001  7.6574346E+001  7.6519312E+001  7.6468993E+001  7.6423421E+001  7.6382617E+001  7.6346596E+001  7.6315368E+001  7.6288940E+001  7.6267314E+001  7.6250494E+001  7.6238479E+001  7.6231270E+001  7.6228867E+001  7.9942489E+001  7.9946615E+001  7.9958995E+001  7.9979637E+001  8.0008554E+001  8.0045757E+001  8.0091254E+001  8.0145045E+001  8.0207108E+001  8.0277386E+001  8.0355774E+001  8.0442085E+001  8.0536022E+001  8.0637122E+001  8.0744700E+001  8.0857758E+001  8.0974894E+001  8.1094180E+001  8.1213066E+001  8.1328315E+001  8.1436050E+001  8.1531974E+001  8.1611808E+001  8.1671910E+001  8.1709961E+001  8.1725508E+001  8.1720447E+001  8.1695598E+001  8.1641328E+001  8.1559034E+001  8.1454948E+001  8.1345384E+001  8.1234451E+001  8.1122898E+001  8.1011406E+001  8.0900398E+001  8.0790105E+001  8.0680639E+001  8.0572038E+001  8.0464295E+001  8.0357364E+001  8.0251161E+001  8.0145566E+001  8.0040437E+001  7.9935614E+001  7.9830943E+001  7.9726281E+001  7.9621499E+001  7.9516485E+001  7.9411134E+001  7.9305339E+001  7.9198985E+001  7.9091954E+001  7.8984135E+001  7.8875448E+001  7.8765877E+001  7.8655485E+001  7.8544423E+001  7.8432926E+001  7.8321282E+001  7.8209809E+001  7.8098830E+001  7.7988656E+001  7.7879588E+001  7.7771918E+001  7.7665938E+001  7.7561947E+001  7.7460254E+001  7.7361173E+001  7.7265020E+001  7.7172098E+001  7.7082690E+001  7.6997050E+001  7.6915398E+001  7.6837921E+001  7.6764769E+001  7.6696065E+001  7.6631903E+001  7.6572355E+001  7.6517475E+001  7.6467305E+001  7.6421872E+001  7.6381196E+001  7.6345292E+001  7.6314168E+001  7.6287828E+001  7.6266277E+001  7.6249514E+001  7.6237541E+001  7.6230357E+001  7.6227963E+001  7.9940404E+001  7.9944744E+001  7.9957771E+001  7.9979508E+001  8.0009993E+001  8.0049275E+001  8.0097414E+001  8.0154469E+001  8.0220501E+001  8.0295550E+001  8.0379628E+001  8.0472687E+001  8.0574588E+001  8.0685047E+001  8.0803564E+001  8.0929320E+001  8.1061039E+001  8.1196817E+001  8.1333919E+001  8.1468600E+001  8.1596032E+001  8.1710489E+001  8.1805935E+001  8.1877018E+001  8.1920285E+001  8.1935241E+001  8.1924983E+001  8.1891255E+001  8.1823256E+001  8.1723124E+001  8.1599441E+001  8.1472391E+001  8.1347086E+001  8.1223902E+001  8.1103174E+001  8.0985042E+001  8.0869444E+001  8.0756176E+001  8.0644953E+001  8.0535444E+001  8.0427303E+001  8.0320182E+001  8.0213745E+001  8.0107673E+001  8.0001679E+001  7.9895513E+001  7.9788968E+001  7.9681884E+001  7.9574145E+001  7.9465672E+001  7.9356414E+001  7.9246346E+001  7.9135462E+001  7.9023775E+001  7.8911326E+001  7.8798185E+001  7.8684461E+001  7.8570302E+001  7.8455897E+001  7.8341472E+001  7.8227291E+001  7.8113649E+001  7.8000870E+001  7.7889299E+001  7.7779291E+001  7.7671205E+001  7.7565389E+001  7.7462177E+001  7.7361885E+001  7.7264806E+001  7.7171208E+001  7.7081331E+001  7.6995388E+001  7.6913562E+001  7.6836004E+001  7.6762841E+001  7.6694175E+001  7.6630083E+001  7.6570627E+001  7.6515853E+001  7.6465794E+001  7.6420472E+001  7.6379906E+001  7.6344103E+001  7.6313071E+001  7.6286813E+001  7.6265330E+001  7.6248623E+001  7.6236689E+001  7.6229529E+001  7.6227143E+001  7.9935208E+001  7.9939755E+001  7.9953407E+001  7.9976206E+001  8.0008214E+001  8.0049524E+001  8.0100247E+001  8.0160516E+001  8.0230482E+001  8.0310298E+001  8.0400117E+001  8.0500064E+001  8.0610209E+001  8.0730516E+001  8.0860770E+001  8.1000465E+001  8.1148629E+001  8.1303590E+001  8.1462639E+001  8.1621650E+001  8.1774721E+001  8.1914134E+001  8.2031019E+001  8.2116949E+001  8.2166155E+001  8.2177448E+001  8.2155075E+001  8.2103247E+001  8.2014089E+001  8.1892335E+001  8.1748427E+001  8.1603606E+001  8.1463395E+001  8.1328176E+001  8.1198062E+001  8.1072868E+001  8.0952165E+001  8.0835376E+001  8.0721846E+001  8.0610901E+001  8.0501880E+001  8.0394163E+001  8.0287184E+001  8.0180442E+001  8.0073508E+001  7.9966032E+001  7.9857745E+001  7.9748454E+001  7.9638047E+001  7.9526478E+001  7.9413762E+001  7.9299966E+001  7.9185196E+001  7.9069585E+001  7.8953282E+001  7.8836444E+001  7.8719218E+001  7.8601752E+001  7.8484190E+001  7.8366699E+001  7.8249491E+001  7.8132838E+001  7.8017085E+001  7.7902629E+001  7.7789904E+001  7.7679340E+001  7.7571343E+001  7.7466277E+001  7.7364461E+001  7.7266169E+001  7.7171636E+001  7.7081062E+001  7.6994618E+001  7.6912448E+001  7.6834671E+001  7.6761384E+001  7.6692664E+001  7.6628571E+001  7.6569152E+001  7.6514441E+001  7.6464460E+001  7.6419227E+001  7.6378751E+001  7.6343038E+001  7.6312090E+001  7.6285908E+001  7.6264490E+001  7.6247834E+001  7.6235939E+001  7.6228803E+001  7.6226424E+001  7.9926491E+001  7.9931232E+001  7.9945473E+001  7.9969271E+001  8.0002719E+001  8.0045949E+001  8.0099132E+001  8.0162476E+001  8.0236228E+001  8.0320669E+001  8.0416111E+001  8.0522880E+001  8.0641302E+001  8.0771658E+001  8.0914129E+001  8.1068681E+001  8.1234886E+001  8.1411630E+001  8.1596650E+001  8.1785857E+001  8.1972487E+001  8.2146335E+001  8.2293973E+001  8.2401325E+001  8.2457950E+001  8.2461133E+001  8.2416888E+001  8.2334535E+001  8.2214042E+001  8.2065016E+001  8.1899271E+001  8.1736059E+001  8.1580467E+001  8.1433063E+001  8.1293754E+001  8.1161933E+001  8.1036707E+001  8.0917045E+001  8.0801873E+001  8.0690137E+001  8.0580842E+001  8.0473078E+001  8.0366042E+001  8.0259039E+001  8.0151497E+001  8.0042961E+001  7.9933100E+001  7.9821695E+001  7.9708641E+001  7.9593936E+001  7.9477671E+001  7.9360016E+001  7.9241201E+001  7.9121490E+001  7.9001156E+001  7.8880446E+001  7.8759556E+001  7.8638619E+001  7.8517721E+001  7.8396940E+001  7.8276412E+001  7.8156380E+001  7.8037220E+001  7.7919416E+001  7.7803511E+001  7.7690038E+001  7.7579474E+001  7.7472218E+001  7.7368586E+001  7.7268829E+001  7.7173144E+001  7.7081686E+001  7.6994582E+001  7.6911935E+001  7.6833828E+001  7.6760326E+001  7.6691480E+001  7.6627330E+001  7.6567904E+001  7.6513221E+001  7.6463295E+001  7.6418132E+001  7.6377734E+001  7.6342102E+001  7.6311233E+001  7.6285123E+001  7.6263768E+001  7.6247163E+001  7.6235306E+001  7.6228193E+001  7.6225822E+001  7.9913865E+001  7.9918783E+001  7.9933560E+001  7.9958268E+001  7.9993030E+001  8.0038018E+001  8.0093461E+001  8.0159644E+001  8.0236914E+001  8.0325682E+001  8.0426430E+001  8.0539706E+001  8.0666124E+001  8.0806345E+001  8.0961039E+001  8.1130814E+001  8.1316061E+001  8.1516667E+001  8.1731484E+001  8.1957377E+001  8.2187679E+001  8.2410113E+001  8.2604667E+001  8.2745487E+001  8.2812736E